CeO2                                    
           1
     7.707464    0.000000    0.000000
    -3.853732    6.674860    0.000000
     0.000000    0.000000   28.319031
   Ce   O    C    O 
  12  24   1   1
Direct configuration=     1
   0.16666700  0.33333300  0.38888900
   0.16666700  0.83333300  0.38888900
   0.66666700  0.33333300  0.38888900
   0.66666700  0.83333300  0.38888900
   0.00000000  0.00000000  0.61111100
   0.00000000  0.50000000  0.61111100
   0.50000000  0.00000000  0.61111100
   0.50000000  0.50000000  0.61111100
   0.33333300  0.16666700  0.50000000
   0.33333300  0.66666700  0.50000000
   0.83333300  0.16666700  0.50000000
   0.83333300  0.66666700  0.50000000
   0.16666700  0.33333300  0.47222200
   0.16666700  0.83333300  0.47222200
   0.66666700  0.33333300  0.47222200
   0.66666700  0.83333300  0.47222200
   0.00000000  0.00000000  0.36111100
   0.00000000  0.50000000  0.36111100
   0.50000000  0.00000000  0.36111100
   0.50000000  0.50000000  0.36111100
   0.33333300  0.16666700  0.58333300
   0.33333300  0.66666700  0.58333300
   0.83333300  0.16666700  0.58333300
   0.83333300  0.66666700  0.58333300
   0.00000000  0.00000000  0.52777800
   0.00000000  0.50000000  0.52777800
   0.50000000  0.00000000  0.52777800
   0.50000000  0.50000000  0.52777800
   0.33333300  0.16666700  0.41666700
   0.33333300  0.66666700  0.41666700
   0.83333300  0.16666700  0.41666700
   0.83333300  0.66666700  0.41666700
   0.16666700  0.33333300  0.63888900
   0.16666700  0.83333300  0.63888900
   0.66666700  0.33333300  0.63888900
   0.66666700  0.83333300  0.63888900
   0.00000000  0.50000000  0.72389500
   0.14816800  0.50000000  0.72389500
Direct configuration=     2
   0.16666493  0.33333543  0.38861771
   0.16666520  0.83332882  0.38861742
   0.66667184  0.33333455  0.38861741
   0.66666773  0.83333396  0.38861814
   0.00005475  0.00015416  0.61134831
  -0.00040399  0.49988944  0.61109770
   0.50017317  0.00019259  0.61134675
   0.49998421  0.49986596  0.61141430
   0.33333232  0.16667442  0.50001529
   0.33334433  0.66666342  0.50001048
   0.83333623  0.16666291  0.50001696
   0.83332365  0.66666952  0.50001410
   0.16665954  0.33333370  0.47178848
   0.16666315  0.83332642  0.47178897
   0.66667587  0.33333444  0.47178926
   0.66666993  0.83333824  0.47178849
  -0.00000603 -0.00000301  0.36090095
   0.00000241  0.50000097  0.36090040
   0.50000259 -0.00000501  0.36090060
   0.50000289  0.50000781  0.36090065
   0.33334141  0.16660067  0.58311442
   0.33336144  0.66672569  0.58311962
   0.83329467  0.16663682  0.58311122
   0.83335553  0.66669746  0.58310756
  -0.00000898 -0.00000670  0.52819797
  -0.00000838  0.49999923  0.52819135
   0.50000258 -0.00000653  0.52820013
   0.50000601  0.50000972  0.52819601
   0.33333140  0.16666519  0.41687792
   0.33333816  0.66666945  0.41687858
   0.83333239  0.16666121  0.41687943
   0.83333284  0.66667100  0.41687869
   0.16672540  0.33230558  0.63866845
   0.16679879  0.83349987  0.63911191
   0.66629700  0.33289362  0.63895294
   0.66666668  0.83344537  0.63910651
  -0.00087523  0.50056689  0.72424500
   0.14939157  0.50052669  0.72445992
Direct configuration=     3
   0.16666477  0.33333562  0.38859714
   0.16666507  0.83332851  0.38859683
   0.66667221  0.33333467  0.38859682
   0.66666778  0.83333403  0.38859761
   0.00005891  0.00016585  0.61136630
  -0.00043462  0.49988106  0.61109670
   0.50018630  0.00020720  0.61136462
   0.49998301  0.49985580  0.61143730
   0.33333227  0.16667498  0.50001645
   0.33334519  0.66666315  0.50001128
   0.83333648  0.16666260  0.50001825
   0.83332294  0.66666972  0.50001517
   0.16665898  0.33333375  0.47175561
   0.16666286  0.83332593  0.47175614
   0.66667654  0.33333455  0.47175645
   0.66667015  0.83333864  0.47175562
  -0.00000649 -0.00000324  0.36088502
   0.00000260  0.50000105  0.36088443
   0.50000278 -0.00000539  0.36088465
   0.50000311  0.50000840  0.36088470
   0.33334205  0.16659564  0.58309785
   0.33336360  0.66673014  0.58310344
   0.83329177  0.16663453  0.58309441
   0.83335724  0.66669977  0.58309046
  -0.00000966 -0.00000721  0.52822981
  -0.00000902  0.49999917  0.52822269
   0.50000277 -0.00000702  0.52823213
   0.50000647  0.50001045  0.52822771
   0.33333128  0.16666506  0.41689391
   0.33333855  0.66666963  0.41689462
   0.83333234  0.16666077  0.41689554
   0.83333283  0.66667130  0.41689474
   0.16672983  0.33222768  0.63865173
   0.16680878  0.83351252  0.63912882
   0.66626895  0.33286031  0.63895779
   0.66666665  0.83345389  0.63912300
  -0.00094159  0.50060987  0.72427153
   0.14948434  0.50056663  0.72450275
Direct configuration=     4
   0.16666452  0.33333574  0.38855147
   0.16666490  0.83332817  0.38855112
   0.66667271  0.33333475  0.38855113
   0.66666802  0.83333425  0.38855204
   0.00007156  0.00019026  0.61140649
  -0.00049836  0.49986765  0.61109220
   0.50020918  0.00023291  0.61140459
   0.49997683  0.49983291  0.61148790
   0.33333235  0.16667625  0.50001897
   0.33335187  0.66666483  0.50001260
   0.83333465  0.16665716  0.50001978
   0.83331882  0.66667250  0.50001623
   0.16665725  0.33333423  0.47167852
   0.16666178  0.83332398  0.47167919
   0.66667888  0.33333517  0.47167951
   0.66667076  0.83333956  0.47167851
  -0.00000735 -0.00000369  0.36084459
   0.00000298  0.50000117  0.36084393
   0.50000320 -0.00000613  0.36084417
   0.50000358  0.50000955  0.36084424
   0.33334683  0.16658245  0.58306143
   0.33336671  0.66673945  0.58306911
   0.83328305  0.16663066  0.58305783
   0.83336031  0.66670223  0.58305396
  -0.00001185 -0.00000864  0.52830417
  -0.00001143  0.49999886  0.52829585
   0.50000396 -0.00000799  0.52830683
   0.50000813  0.50001248  0.52830229
   0.33333110  0.16666480  0.41692735
   0.33333928  0.66666993  0.41692825
   0.83333232  0.16665999  0.41692931
   0.83333284  0.66667181  0.41692839
   0.16673974  0.33204218  0.63861306
   0.16682990  0.83353889  0.63917080
   0.66620487  0.33278292  0.63897138
   0.66666607  0.83347316  0.63916448
  -0.00075203  0.50071987  0.72433925
   0.14936008  0.50066573  0.72460908
Direct configuration=     5
   0.16666377  0.33333610  0.38841446
   0.16666441  0.83332715  0.38841400
   0.66667422  0.33333497  0.38841407
   0.66666875  0.83333491  0.38841532
   0.00010952  0.00026348  0.61152705
  -0.00068961  0.49982743  0.61107871
   0.50027782  0.00031004  0.61152449
   0.49995827  0.49976424  0.61163971
   0.33333260  0.16668007  0.50002652
   0.33337192  0.66666985  0.50001658
   0.83332915  0.16664086  0.50002438
   0.83330646  0.66668086  0.50001944
   0.16665208  0.33333568  0.47144728
   0.16665852  0.83331815  0.47144834
   0.66668588  0.33333701  0.47144867
   0.66667258  0.83334233  0.47144720
  -0.00000995 -0.00000505  0.36072330
   0.00000411  0.50000155  0.36072243
   0.50000445 -0.00000836  0.36072274
   0.50000498  0.50001300  0.36072283
   0.33336117  0.16654288  0.58295217
   0.33337605  0.66676739  0.58296614
   0.83325689  0.16661904  0.58294811
   0.83336954  0.66670961  0.58294446
  -0.00001842 -0.00001294  0.52852726
  -0.00001869  0.49999792  0.52851532
   0.50000753 -0.00001089  0.52853092
   0.50001313  0.50001858  0.52852603
   0.33333058  0.16666401  0.41702765
   0.33334148  0.66667083  0.41702912
   0.83333225  0.16665764  0.41703061
   0.83333289  0.66667336  0.41702932
   0.16676948  0.33148567  0.63849705
   0.16689327  0.83361799  0.63929676
   0.66601264  0.33255077  0.63901217
   0.66666433  0.83353096  0.63928890
  -0.00018335  0.50104988  0.72454240
   0.14898731  0.50096303  0.72492807
Direct configuration=     6
   0.16666227  0.33333683  0.38814043
   0.16666342  0.83332511  0.38813977
   0.66667724  0.33333542  0.38813994
   0.66667020  0.83333624  0.38814189
   0.00018545  0.00040992  0.61176819
  -0.00107210  0.49974698  0.61105174
   0.50041511  0.00046431  0.61176428
   0.49992114  0.49962689  0.61194333
   0.33333309  0.16668771  0.50004163
   0.33341202  0.66667988  0.50002454
   0.83331817  0.16660825  0.50003357
   0.83328173  0.66669757  0.50002586
   0.16664173  0.33333858  0.47098478
   0.16665201  0.83330649  0.47098665
   0.66669989  0.33334070  0.47098699
   0.66667622  0.83334787  0.47098457
  -0.00001513 -0.00000777  0.36048072
   0.00000639  0.50000231  0.36047941
   0.50000695 -0.00001282  0.36047988
   0.50000779  0.50001989  0.36048003
   0.33338984  0.16646374  0.58273366
   0.33339473  0.66682326  0.58276020
   0.83320456  0.16659582  0.58272867
   0.83338799  0.66672436  0.58272546
  -0.00003156 -0.00002155  0.52897344
  -0.00003319  0.49999605  0.52895427
   0.50001467 -0.00001669  0.52897910
   0.50002313  0.50003077  0.52897351
   0.33332953  0.16666245  0.41722827
   0.33334587  0.66667262  0.41723086
   0.83333211  0.16665293  0.41723323
   0.83333298  0.66667646  0.41723120
   0.16682896  0.33037264  0.63826504
   0.16702000  0.83377620  0.63954867
   0.66562818  0.33208645  0.63909376
   0.66666085  0.83364657  0.63953774
   0.00095402  0.50170990  0.72494871
   0.14824176  0.50155764  0.72556606
Direct configuration=     7
   0.16666304  0.33333646  0.38828189
   0.16666393  0.83332616  0.38828134
   0.66667568  0.33333519  0.38828146
   0.66666945  0.83333555  0.38828305
   0.00014625  0.00033432  0.61164370
  -0.00087464  0.49978851  0.61106566
   0.50034423  0.00038467  0.61164049
   0.49994031  0.49969780  0.61178659
   0.33333283  0.16668376  0.50003383
   0.33339132  0.66667470  0.50002043
   0.83332384  0.16662509  0.50002882
   0.83329450  0.66668894  0.50002254
   0.16664707  0.33333708  0.47122354
   0.16665537  0.83331251  0.47122500
   0.66669266  0.33333880  0.47122533
   0.66667434  0.83334501  0.47122340
  -0.00001246 -0.00000636  0.36060595
   0.00000521  0.50000192  0.36060487
   0.50000566 -0.00001052  0.36060526
   0.50000634  0.50001633  0.36060538
   0.33337504  0.16650460  0.58284647
   0.33338508  0.66679442  0.58286652
   0.83323158  0.16660781  0.58284196
   0.83337847  0.66671674  0.58283852
  -0.00002478 -0.00001711  0.52874310
  -0.00002570  0.49999702  0.52872766
   0.50001098 -0.00001370  0.52874773
   0.50001797  0.50002447  0.52874249
   0.33333007  0.16666326  0.41712470
   0.33334360  0.66667169  0.41712671
   0.83333218  0.16665536  0.41712863
   0.83333293  0.66667486  0.41712698
   0.16679825  0.33094724  0.63838481
   0.16695458  0.83369452  0.63941862
   0.66582666  0.33232616  0.63905164
   0.66666264  0.83358689  0.63940927
   0.00036685  0.50136917  0.72473895
   0.14862665  0.50125068  0.72523670
Direct configuration=     8
   0.16666298  0.33333648  0.38827151
   0.16666389  0.83332608  0.38827094
   0.66667579  0.33333520  0.38827107
   0.66666950  0.83333560  0.38827268
   0.00014913  0.00033987  0.61165284
  -0.00088914  0.49978546  0.61106464
   0.50034944  0.00039052  0.61164958
   0.49993890  0.49969259  0.61179810
   0.33333285  0.16668405  0.50003440
   0.33339284  0.66667508  0.50002074
   0.83332342  0.16662385  0.50002917
   0.83329356  0.66668957  0.50002279
   0.16664668  0.33333719  0.47120601
   0.16665513  0.83331207  0.47120749
   0.66669319  0.33333894  0.47120783
   0.66667448  0.83334522  0.47120586
  -0.00001265 -0.00000647  0.36059676
   0.00000530  0.50000195  0.36059566
   0.50000575 -0.00001069  0.36059605
   0.50000645  0.50001659  0.36059617
   0.33337612  0.16650160  0.58283818
   0.33338579  0.66679654  0.58285871
   0.83322959  0.16660693  0.58283364
   0.83337917  0.66671730  0.58283022
  -0.00002528 -0.00001743  0.52876002
  -0.00002625  0.49999694  0.52874430
   0.50001126 -0.00001392  0.52876472
   0.50001835  0.50002494  0.52875946
   0.33333003  0.16666320  0.41713231
   0.33334377  0.66667176  0.41713436
   0.83333218  0.16665518  0.41713631
   0.83333294  0.66667498  0.41713464
   0.16680051  0.33090504  0.63837602
   0.16695938  0.83370052  0.63942817
   0.66581208  0.33230855  0.63905473
   0.66666251  0.83359127  0.63941871
   0.00040998  0.50139419  0.72475436
   0.14859838  0.50127322  0.72526089
Direct configuration=     9
   0.16666302  0.33333647  0.38827737
   0.16666391  0.83332612  0.38827681
   0.66667573  0.33333519  0.38827693
   0.66666947  0.83333558  0.38827853
   0.00014751  0.00033674  0.61164769
  -0.00088096  0.49978718  0.61106522
   0.50034650  0.00038722  0.61164445
   0.49993969  0.49969553  0.61179160
   0.33333284  0.16668389  0.50003408
   0.33339198  0.66667487  0.50002056
   0.83332366  0.16662455  0.50002897
   0.83329409  0.66668922  0.50002265
   0.16664690  0.33333713  0.47121590
   0.16665526  0.83331232  0.47121737
   0.66669289  0.33333886  0.47121770
   0.66667440  0.83334511  0.47121576
  -0.00001254 -0.00000641  0.36060195
   0.00000525  0.50000193  0.36060085
   0.50000570 -0.00001059  0.36060124
   0.50000639  0.50001645  0.36060136
   0.33337551  0.16650329  0.58284286
   0.33338539  0.66679534  0.58286311
   0.83323071  0.16660743  0.58283833
   0.83337877  0.66671699  0.58283490
  -0.00002500 -0.00001725  0.52875047
  -0.00002594  0.49999698  0.52873491
   0.50001110 -0.00001379  0.52875513
   0.50001813  0.50002468  0.52874989
   0.33333005  0.16666323  0.41712801
   0.33334368  0.66667172  0.41713004
   0.83333218  0.16665528  0.41713198
   0.83333294  0.66667491  0.41713032
   0.16679924  0.33092886  0.63838098
   0.16695667  0.83369714  0.63942278
   0.66582031  0.33231848  0.63905299
   0.66666259  0.83358880  0.63941338
   0.00038564  0.50138007  0.72474567
   0.14861433  0.50126050  0.72524724
Direct configuration=    10
   0.16666356  0.33333571  0.38827756
   0.16666461  0.83332743  0.38827712
   0.66667461  0.33333450  0.38827721
   0.66666969  0.83333577  0.38827846
   0.00016127  0.00032457  0.61164782
  -0.00087251  0.49980774  0.61105634
   0.50032013  0.00036361  0.61164536
   0.49992998  0.49969070  0.61178782
   0.33333408  0.16668438  0.50003447
   0.33341121  0.66668391  0.50001897
   0.83331385  0.16660564  0.50002399
   0.83328339  0.66669831  0.50001753
   0.16664481  0.33333902  0.47120504
   0.16665310  0.83330830  0.47120656
   0.66669691  0.33334089  0.47120683
   0.66667476  0.83334518  0.47120448
  -0.00001239 -0.00000635  0.36058216
   0.00000518  0.50000185  0.36058112
   0.50000583 -0.00001039  0.36058147
   0.50000650  0.50001630  0.36058161
   0.33339075  0.16649497  0.58284773
   0.33337620  0.66679015  0.58287348
   0.83322175  0.16661408  0.58284474
   0.83337505  0.66670379  0.58284461
  -0.00002834 -0.00001841  0.52875949
  -0.00003030  0.49999609  0.52874346
   0.50001486 -0.00001358  0.52876385
   0.50002087  0.50002666  0.52876179
   0.33333035  0.16666347  0.41711502
   0.33334370  0.66667159  0.41711741
   0.83333227  0.16665553  0.41711932
   0.83333284  0.66667464  0.41711768
   0.16679990  0.33089266  0.63837943
   0.16695312  0.83368915  0.63944002
   0.66581233  0.33230814  0.63906354
   0.66665904  0.83358715  0.63943330
   0.00040360  0.50143341  0.72477659
   0.14863144  0.50130345  0.72529665
Direct configuration=    11
   0.16666519  0.33333341  0.38827812
   0.16666669  0.83333135  0.38827806
   0.66667124  0.33333242  0.38827804
   0.66667035  0.83333635  0.38827826
   0.00020256  0.00028807  0.61164820
  -0.00084714  0.49986941  0.61102969
   0.50024104  0.00029278  0.61164811
   0.49990084  0.49967621  0.61177645
   0.33333781  0.16668586  0.50003565
   0.33346890  0.66671102  0.50001417
   0.83328441  0.16654890  0.50000902
   0.83325128  0.66672558  0.50000216
   0.16663853  0.33334468  0.47117246
   0.16664662  0.83329625  0.47117415
   0.66670897  0.33334700  0.47117419
   0.66667583  0.83334542  0.47117067
  -0.00001193 -0.00000619  0.36052279
   0.00000497  0.50000161  0.36052193
   0.50000623 -0.00000978  0.36052217
   0.50000684  0.50001586  0.36052236
   0.33343648  0.16647001  0.58286236
   0.33334863  0.66677459  0.58290458
   0.83319486  0.16663403  0.58286395
   0.83336387  0.66666421  0.58287371
  -0.00003839 -0.00002191  0.52878654
  -0.00004336  0.49999341  0.52876911
   0.50002612 -0.00001296  0.52878999
   0.50002906  0.50003262  0.52879749
   0.33333125  0.16666418  0.41707602
   0.33334375  0.66667119  0.41707952
   0.83333254  0.16665628  0.41708134
   0.83333257  0.66667383  0.41707977
   0.16680188  0.33078406  0.63837477
   0.16694245  0.83366520  0.63949173
   0.66578840  0.33227711  0.63909518
   0.66664841  0.83358219  0.63949304
   0.00045748  0.50159342  0.72486936
   0.14868276  0.50143231  0.72544491
Direct configuration=    12
   0.16666844  0.33332883  0.38827925
   0.16667085  0.83333919  0.38827993
   0.66666450  0.33332825  0.38827970
   0.66667167  0.83333752  0.38827784
   0.00028515  0.00021506  0.61164898
  -0.00079641  0.49999275  0.61097640
   0.50008284  0.00015113  0.61165359
   0.49984257  0.49964723  0.61175372
   0.33334526  0.16668881  0.50003800
   0.33358428  0.66676526  0.50000457
   0.83322555  0.16643543  0.49997909
   0.83318708  0.66678011  0.49997142
   0.16662597  0.33335600  0.47110730
   0.16663364  0.83327213  0.47110932
   0.66673310  0.33335922  0.47110892
   0.66667799  0.83334590  0.47110303
  -0.00001100 -0.00000586  0.36040406
   0.00000454  0.50000112  0.36040355
   0.50000703 -0.00000856  0.36040355
   0.50000752  0.50001498  0.36040386
   0.33352793  0.16642010  0.58289160
   0.33329348  0.66674345  0.58296678
   0.83314109  0.16667395  0.58290236
   0.83334153  0.66658504  0.58293193
  -0.00005848 -0.00002890  0.52884065
  -0.00006949  0.49998804  0.52882041
   0.50004865 -0.00001170  0.52884229
   0.50004545  0.50004453  0.52886889
   0.33333306  0.16666560  0.41699803
   0.33334387  0.66667039  0.41700373
   0.83333307  0.16665778  0.41700538
   0.83333202  0.66667221  0.41700394
   0.16680584  0.33056687  0.63836544
   0.16692113  0.83361729  0.63959514
   0.66574054  0.33221506  0.63915848
   0.66662713  0.83357229  0.63961253
   0.00056522  0.50191345  0.72505489
   0.14878540  0.50169004  0.72574142
Direct configuration=    13
   0.16667495  0.33331966  0.38828150
   0.16667917  0.83335487  0.38828368
   0.66665103  0.33331992  0.38828303
   0.66667430  0.83333984  0.38827702
   0.00045032  0.00006906  0.61165054
  -0.00069495  0.50023942  0.61086981
   0.49976646 -0.00013217  0.61166457
   0.49972602  0.49958928  0.61170827
   0.33336017  0.16669471  0.50004271
   0.33381504  0.66687373  0.49998537
   0.83310781  0.16620850  0.49991924
   0.83305867  0.66688919  0.49990994
   0.16660086  0.33337865  0.47097698
   0.16660770  0.83322391  0.47097965
   0.66678136  0.33338366  0.47097839
   0.66668229  0.83334686  0.47096776
  -0.00000916 -0.00000520  0.36016659
   0.00000368  0.50000015  0.36016678
   0.50000863 -0.00000611  0.36016632
   0.50000888  0.50001323  0.36016686
   0.33371083  0.16632027  0.58295010
   0.33318318  0.66668118  0.58309118
   0.83303354  0.16675378  0.58297920
   0.83329684  0.66642670  0.58304836
  -0.00009866 -0.00004287  0.52894886
  -0.00012175  0.49997730  0.52892301
   0.50009371 -0.00000919  0.52894688
   0.50007823  0.50006835  0.52901169
   0.33333666  0.16666844  0.41684205
   0.33334410  0.66666879  0.41685216
   0.83333414  0.16666077  0.41685347
   0.83333092  0.66666898  0.41685229
   0.16681377  0.33013249  0.63834679
   0.16687847  0.83352146  0.63980197
   0.66564481  0.33209094  0.63928507
   0.66658459  0.83355247  0.63985152
   0.00078072  0.50255351  0.72542596
   0.14899067  0.50220549  0.72633443
Direct configuration=    14
   0.16668797  0.33330133  0.38828600
   0.16669581  0.83338624  0.38829117
   0.66662408  0.33330326  0.38828968
   0.66667956  0.83334450  0.38827536
   0.00078067 -0.00022296  0.61165366
  -0.00049203  0.50073277  0.61065665
   0.49913368 -0.00069879  0.61168652
   0.49949292  0.49947336  0.61161736
   0.33338998  0.16670652  0.50005212
   0.33427657  0.66709068  0.49994697
   0.83287235  0.16575462  0.49979953
   0.83280185  0.66710735  0.49978699
   0.16655063  0.33342395  0.47071633
   0.16655581  0.83312747  0.47072032
   0.66687787  0.33343253  0.47071731
   0.66669090  0.83334877  0.47069721
  -0.00000546 -0.00000389  0.35969165
   0.00000196  0.49999820  0.35969325
   0.50001183 -0.00000122  0.35969186
   0.50001159  0.50000971  0.35969285
   0.33407664  0.16612060  0.58306709
   0.33296259  0.66655664  0.58333998
   0.83281843  0.16691344  0.58313287
   0.83320746  0.66611002  0.58328123
  -0.00017902 -0.00007082  0.52916529
  -0.00022628  0.49995582  0.52912821
   0.50018384 -0.00000416  0.52915607
   0.50014379  0.50011599  0.52929729
   0.33334388  0.16667412  0.41653009
   0.33334456  0.66666559  0.41654901
   0.83333627  0.16666676  0.41654964
   0.83332872  0.66666251  0.41654899
   0.16682963  0.32926373  0.63830949
   0.16679317  0.83332982  0.64021563
   0.66545337  0.33184271  0.63953826
   0.66649951  0.83351285  0.64032948
   0.00121171  0.50383363  0.72616810
   0.14940122  0.50323638  0.72752047
Direct configuration=    15
   0.16667889  0.33331412  0.38828286
   0.16668420  0.83336436  0.38828594
   0.66664288  0.33331488  0.38828504
   0.66667589  0.83334125  0.38827652
   0.00055021 -0.00001924  0.61165148
  -0.00063360  0.50038859  0.61080536
   0.49957513 -0.00030350  0.61167120
   0.49965554  0.49955423  0.61168078
   0.33336918  0.16669828  0.50004555
   0.33395459  0.66693933  0.49997376
   0.83303662  0.16607126  0.49988304
   0.83298101  0.66695515  0.49987277
   0.16658567  0.33339235  0.47089816
   0.16659201  0.83319475  0.47090124
   0.66681054  0.33339843  0.47089945
   0.66668489  0.83334744  0.47088595
  -0.00000804 -0.00000481  0.36002299
   0.00000316  0.49999956  0.36002360
   0.50000960 -0.00000463  0.36002286
   0.50000970  0.50001216  0.36002353
   0.33382144  0.16625990  0.58298547
   0.33311649  0.66664352  0.58316641
   0.83296850  0.16680205  0.58302566
   0.83326981  0.66633095  0.58311877
  -0.00012296 -0.00005132  0.52901430
  -0.00015336  0.49997080  0.52898506
   0.50012096 -0.00000767  0.52901013
   0.50009805  0.50008275  0.52909805
   0.33333885  0.16667016  0.41674772
   0.33334424  0.66666782  0.41676050
   0.83333478  0.16666258  0.41676160
   0.83333025  0.66666702  0.41676058
   0.16681857  0.32986981  0.63833551
   0.16685268  0.83346352  0.63992705
   0.66558693  0.33201588  0.63936163
   0.66655886  0.83354049  0.63999603
   0.00091104  0.50294057  0.72565036
   0.14911481  0.50251719  0.72669305
Direct configuration=    16
   0.16668471  0.33331606  0.38823807
   0.16669150  0.83336875  0.38824163
   0.66663635  0.33331048  0.38823949
   0.66667048  0.83333961  0.38822197
   0.00053923 -0.00006118  0.61168407
  -0.00066766  0.50036710  0.61082189
   0.49957095 -0.00033569  0.61171387
   0.49965454  0.49952878  0.61170741
   0.33337128  0.16668633  0.50004372
   0.33395404  0.66694661  0.49996700
   0.83302983  0.16606670  0.49988026
   0.83298443  0.66696009  0.49985912
   0.16659372  0.33340306  0.47090000
   0.16658838  0.83318664  0.47090301
   0.66681182  0.33340793  0.47089938
   0.66667888  0.83333507  0.47088390
  -0.00001150 -0.00000703  0.35996282
   0.00000212  0.49999932  0.35996399
   0.50001229 -0.00000519  0.35996265
   0.50001285  0.50001542  0.35996342
   0.33386392  0.16619741  0.58299246
   0.33308638  0.66663263  0.58319502
   0.83292504  0.16679947  0.58304007
   0.83326207  0.66630342  0.58314480
  -0.00013616 -0.00006991  0.52900216
  -0.00015237  0.49999032  0.52896380
   0.50011707 -0.00003864  0.52899277
   0.50010526  0.50010186  0.52909347
   0.33334009  0.16667099  0.41670524
   0.33335617  0.66667345  0.41671921
   0.83332896  0.16665173  0.41671720
   0.83332391  0.66667187  0.41671792
   0.16682747  0.32978305  0.63833800
   0.16683066  0.83342710  0.63997849
   0.66555849  0.33199678  0.63939252
   0.66653899  0.83351523  0.64005358
   0.00106663  0.50316941  0.72578155
   0.14911718  0.50269497  0.72690403
Direct configuration=    17
   0.16670217  0.33332186  0.38810370
   0.16671342  0.83338192  0.38810868
   0.66661675  0.33329728  0.38810283
   0.66665428  0.83333470  0.38805833
   0.00050628 -0.00018701  0.61178183
  -0.00076984  0.50030260  0.61087150
   0.49955842 -0.00043226  0.61184187
   0.49965154  0.49945244  0.61178729
   0.33337760  0.16665048  0.50003822
   0.33395239  0.66696844  0.49994673
   0.83300948  0.16605302  0.49987193
   0.83299466  0.66697490  0.49981818
   0.16661788  0.33343521  0.47090552
   0.16657751  0.83316230  0.47090830
   0.66681567  0.33343641  0.47089920
   0.66666084  0.83329795  0.47087775
  -0.00002189 -0.00001370  0.35978231
  -0.00000101  0.49999861  0.35978515
   0.50002036 -0.00000686  0.35978202
   0.50002232  0.50002520  0.35978309
   0.33399138  0.16600995  0.58301342
   0.33299606  0.66659996  0.58328087
   0.83279467  0.16679174  0.58308330
   0.83323882  0.66622082  0.58322288
  -0.00017574 -0.00012568  0.52896574
  -0.00014942  0.50004888  0.52890001
   0.50010540 -0.00013157  0.52894068
   0.50012687  0.50015918  0.52907975
   0.33334382  0.16667348  0.41657778
   0.33339196  0.66669032  0.41659535
   0.83331150  0.16661920  0.41658402
   0.83330487  0.66668641  0.41658993
   0.16685419  0.32952279  0.63834547
   0.16676460  0.83331786  0.64013281
   0.66547320  0.33193946  0.63948520
   0.66647935  0.83343946  0.64022624
   0.00153339  0.50385593  0.72617511
   0.14912429  0.50322830  0.72753699
Direct configuration=    18
   0.16673709  0.33333346  0.38783496
   0.16675725  0.83340827  0.38784279
   0.66657756  0.33327087  0.38782950
   0.66662186  0.83332486  0.38773106
   0.00044038 -0.00043865  0.61197735
  -0.00097420  0.50017362  0.61097070
   0.49953336 -0.00062541  0.61209787
   0.49964555  0.49929976  0.61194706
   0.33339022  0.16657877  0.50002721
   0.33394908  0.66701212  0.49990619
   0.83296877  0.16602566  0.49985527
   0.83301513  0.66700453  0.49973631
   0.16666618  0.33349951  0.47091655
   0.16655575  0.83311363  0.47091890
   0.66682336  0.33349338  0.47089882
   0.66662475  0.83322373  0.47086545
  -0.00004267 -0.00002704  0.35942130
  -0.00000727  0.49999718  0.35942748
   0.50003650 -0.00001020  0.35942076
   0.50004126  0.50004477  0.35942242
   0.33424629  0.16563502  0.58305534
   0.33281543  0.66653462  0.58345257
   0.83253393  0.16677626  0.58316976
   0.83319234  0.66605564  0.58337903
  -0.00025491 -0.00023721  0.52889291
  -0.00014352  0.50016600  0.52877243
   0.50008204 -0.00031741  0.52883649
   0.50017009  0.50027382  0.52905229
   0.33335128  0.16667847  0.41632286
   0.33346355  0.66672407  0.41634763
   0.83327657  0.16655413  0.41631766
   0.83326680  0.66671549  0.41633395
   0.16690763  0.32900225  0.63836041
   0.16663248  0.83309937  0.64044146
   0.66530260  0.33182482  0.63967055
   0.66636008  0.83328792  0.64057154
   0.00246692  0.50522898  0.72696224
   0.14913850  0.50429497  0.72880292
Direct configuration=    19
   0.16680693  0.33335667  0.38729748
   0.16684491  0.83346097  0.38731100
   0.66649918  0.33321805  0.38728285
   0.66655702  0.83330520  0.38707651
   0.00030859 -0.00094195  0.61236840
  -0.00138292  0.49991566  0.61116911
   0.49948324 -0.00101171  0.61260987
   0.49963357  0.49899440  0.61226658
   0.33341547  0.16643535  0.50000520
   0.33394246  0.66709946  0.49982512
   0.83288735  0.16597093  0.49982194
   0.83305607  0.66706378  0.49957255
   0.16676280  0.33362810  0.47093861
   0.16651224  0.83301629  0.47094008
   0.66683875  0.33360731  0.47089807
   0.66655257  0.83307529  0.47084084
  -0.00008422 -0.00005372  0.35869928
  -0.00001978  0.49999433  0.35871213
   0.50006878 -0.00001689  0.35869824
   0.50007914  0.50008389  0.35870109
   0.33475611  0.16488517  0.58313919
   0.33245415  0.66640394  0.58379596
   0.83201246  0.16674530  0.58334269
   0.83309936  0.66572527  0.58369134
  -0.00041325 -0.00046027  0.52874723
  -0.00013172  0.50040023  0.52851728
   0.50003534 -0.00068911  0.52862812
   0.50025654  0.50050310  0.52899739
   0.33336619  0.16668845  0.41581302
   0.33360673  0.66679157  0.41585220
   0.83320671  0.16642399  0.41578493
   0.83319065  0.66677364  0.41582199
   0.16701450  0.32796119  0.63839029
   0.16636825  0.83266239  0.64105874
   0.66496141  0.33159553  0.64004125
   0.66612153  0.83298483  0.64126215
   0.00433397  0.50797507  0.72853650
   0.14916693  0.50642830  0.73133476
Direct configuration=    20
   0.16680837  0.33335723  0.38728285
   0.16684694  0.83346207  0.38729643
   0.66649754  0.33321679  0.38726792
   0.66655555  0.83330489  0.38705878
   0.00030425 -0.00095549  0.61237856
  -0.00139445  0.49990745  0.61117479
   0.49948288 -0.00102135  0.61262328
   0.49963372  0.49898597  0.61227506
   0.33341628  0.16643157  0.50000438
   0.33394168  0.66710129  0.49982282
   0.83288537  0.16597002  0.49982091
   0.83305720  0.66706485  0.49956818
   0.16676548  0.33363115  0.47093924
   0.16651119  0.83301417  0.47094056
   0.66683870  0.33361010  0.47089805
   0.66655079  0.83307134  0.47084013
  -0.00008515 -0.00005442  0.35868020
  -0.00002002  0.49999436  0.35869330
   0.50006945 -0.00001711  0.35867912
   0.50008005  0.50008482  0.35868201
   0.33476853  0.16486440  0.58314151
   0.33244472  0.66640066  0.58380499
   0.83199868  0.16674351  0.58334735
   0.83309729  0.66571730  0.58369951
  -0.00041750 -0.00046633  0.52874332
  -0.00013136  0.50040642  0.52851043
   0.50003401 -0.00069964  0.52862236
   0.50025864  0.50050903  0.52899569
   0.33336654  0.16668856  0.41579955
   0.33361041  0.66679341  0.41583902
   0.83320484  0.16642057  0.41577084
   0.83318877  0.66677520  0.41580838
   0.16701687  0.32793473  0.63839180
   0.16636080  0.83265076  0.64107496
   0.66495259  0.33158982  0.64005119
   0.66611557  0.83297662  0.64128012
   0.00434630  0.50804981  0.72857827
   0.14920649  0.50648549  0.73140411
Direct configuration=    21
   0.16681269  0.33335890  0.38723897
   0.16685303  0.83346536  0.38725272
   0.66649264  0.33321299  0.38722313
   0.66655112  0.83330395  0.38700559
   0.00029123 -0.00099612  0.61240906
  -0.00142905  0.49988281  0.61119181
   0.49948180 -0.00105026  0.61266352
   0.49963418  0.49896070  0.61230050