CeO2                                    
           1
     7.707464    0.000000    0.000000
    -3.853732    6.674860    0.000000
     0.000000    0.000000   28.319031
   Ce   O    C    O 
  12  24   1   1
Direct configuration=     1
   0.16666700  0.33333300  0.38888900
   0.16666700  0.83333300  0.38888900
   0.66666700  0.33333300  0.38888900
   0.66666700  0.83333300  0.38888900
   0.00000000  0.00000000  0.61111100
   0.00000000  0.50000000  0.61111100
   0.50000000  0.00000000  0.61111100
   0.50000000  0.50000000  0.61111100
   0.33333300  0.16666700  0.50000000
   0.33333300  0.66666700  0.50000000
   0.83333300  0.16666700  0.50000000
   0.83333300  0.66666700  0.50000000
   0.16666700  0.33333300  0.47222200
   0.16666700  0.83333300  0.47222200
   0.66666700  0.33333300  0.47222200
   0.66666700  0.83333300  0.47222200
   0.00000000  0.00000000  0.36111100
   0.00000000  0.50000000  0.36111100
   0.50000000  0.00000000  0.36111100
   0.50000000  0.50000000  0.36111100
   0.33333300  0.16666700  0.58333300
   0.33333300  0.66666700  0.58333300
   0.83333300  0.16666700  0.58333300
   0.83333300  0.66666700  0.58333300
   0.00000000  0.00000000  0.52777800
   0.00000000  0.50000000  0.52777800
   0.50000000  0.00000000  0.52777800
   0.50000000  0.50000000  0.52777800
   0.33333300  0.16666700  0.41666700
   0.33333300  0.66666700  0.41666700
   0.83333300  0.16666700  0.41666700
   0.83333300  0.66666700  0.41666700
   0.16666700  0.33333300  0.63888900
   0.16666700  0.83333300  0.63888900
   0.66666700  0.33333300  0.63888900
   0.66666700  0.83333300  0.63888900
   0.27777800  0.50000000  0.72389500
   0.19223300  0.32891000  0.72389500
Direct configuration=     2
   0.16666586  0.33333342  0.38860659
   0.16666659  0.83333264  0.38860699
   0.66666796  0.33333399  0.38860629
   0.66666709  0.83333328  0.38860681
  -0.00018830 -0.00026371  0.61131746
  -0.00018345  0.50020323  0.61116861
   0.49992032 -0.00022867  0.61145428
   0.50056738  0.50036827  0.61113480
   0.33331473  0.16665314  0.50000261
   0.33332999  0.66667015  0.50000335
   0.83334004  0.16665934  0.50000569
   0.83334708  0.66668515  0.50000547
   0.16666916  0.33333986  0.47179230
   0.16666155  0.83332572  0.47179367
   0.66667196  0.33334182  0.47179462
   0.66666474  0.83332666  0.47179410
   0.00000087  0.00000054  0.36090728
   0.00000224  0.50000176  0.36090731
   0.49999850 -0.00000170  0.36090717
   0.49999911  0.50000155  0.36090708
   0.33339402  0.16669476  0.58313209
   0.33334147  0.66665894  0.58312218
   0.83327219  0.16667332  0.58312808
   0.83331027  0.66662658  0.58311629
  -0.00000755 -0.00001557  0.52820411
  -0.00000634  0.50000913  0.52821445
   0.49999874 -0.00000080  0.52819700
   0.50001555  0.50000923  0.52822027
   0.33333135  0.16666589  0.41688298
   0.33333196  0.66666685  0.41688395
   0.83333485  0.16666711  0.41688343
   0.83333507  0.66666863  0.41688421
   0.16587669  0.33311322  0.63738290
   0.16654129  0.83327472  0.63905254
   0.66668833  0.33342387  0.63912638
   0.66683955  0.83334050  0.63901714
   0.27803785  0.50051972  0.72431199
   0.19259233  0.32849745  0.72570750
Direct configuration=     3
   0.16666433  0.33333398  0.38822953
   0.16666605  0.83333217  0.38823045
   0.66666924  0.33333530  0.38822883
   0.66666720  0.83333365  0.38823004
  -0.00043972 -0.00061580  0.61159313
  -0.00042840  0.50047459  0.61124554
   0.49981394 -0.00053399  0.61191262
   0.50132493  0.50085997  0.61116657
   0.33329034  0.16663464  0.50000609
   0.33332596  0.66667436  0.50000782
   0.83334944  0.16664912  0.50001330
   0.83336587  0.66670938  0.50001278
   0.16667204  0.33334903  0.47121856
   0.16665426  0.83331600  0.47122177
   0.66667857  0.33335359  0.47122398
   0.66666173  0.83331818  0.47122277
   0.00000203  0.00000126  0.36063528
   0.00000523  0.50000411  0.36063534
   0.49999650 -0.00000397  0.36063503
   0.49999791  0.50000362  0.36063481
   0.33347549  0.16673183  0.58286385
   0.33335277  0.66664818  0.58284069
   0.83319099  0.16668176  0.58285447
   0.83327992  0.66657260  0.58282695
  -0.00001762 -0.00003636  0.52877305
  -0.00001482  0.50002133  0.52879720
   0.49999706 -0.00000186  0.52875645
   0.50003630  0.50002155  0.52881079
   0.33332914  0.16666440  0.41717135
   0.33333057  0.66666665  0.41717362
   0.83333733  0.16666725  0.41717241
   0.83333783  0.66667080  0.41717422
   0.16482147  0.33281978  0.63537198
   0.16637345  0.83319691  0.63927089
   0.66671681  0.33354521  0.63944333
   0.66706993  0.83335051  0.63918823
   0.27838480  0.50121365  0.72486874
   0.19307211  0.32794662  0.72812753
Direct configuration=     4
   0.16666340  0.33333384  0.38815370
   0.16666684  0.83333286  0.38815482
   0.66666940  0.33333460  0.38815339
   0.66666729  0.83333513  0.38815456
  -0.00048766 -0.00068324  0.61161863
  -0.00052929  0.50051085  0.61123064
   0.49979767 -0.00056401  0.61200386
   0.50149371  0.50093408  0.61113824
   0.33328504  0.16660057  0.50001692
   0.33333871  0.66671201  0.50001194
   0.83332334  0.16662257  0.50002545
   0.83338459  0.66673319  0.49999704
   0.16667800  0.33335699  0.47106765
   0.16664289  0.83330611  0.47107029
   0.66668428  0.33336959  0.47107330
   0.66666139  0.83330540  0.47107163
   0.00000206  0.00000095  0.36053345
   0.00000566  0.50000509  0.36053351
   0.49999607 -0.00000434  0.36053320
   0.49999827  0.50000448  0.36053297
   0.33357700  0.16667882  0.58281659
   0.33345035  0.66680318  0.58278599
   0.83298291  0.16658656  0.58279849
   0.83326052  0.66655955  0.58276981
  -0.00003188 -0.00006678  0.52891651
  -0.00002498  0.50004205  0.52893719
   0.49999004 -0.00001105  0.52890034
   0.50006893  0.50004231  0.52895497
   0.33332872  0.16666381  0.41720469
   0.33333053  0.66666728  0.41720745
   0.83333753  0.16666707  0.41720557
   0.83333870  0.66667174  0.41720902
   0.16458701  0.33277941  0.63488522
   0.16633223  0.83318550  0.63935847
   0.66671105  0.33357943  0.63955680
   0.66713504  0.83334679  0.63926237
   0.27759166  0.49961369  0.72507414
   0.19410399  0.32955391  0.72887123
Direct configuration=     5
   0.16666340  0.33333384  0.38815385
   0.16666684  0.83333286  0.38815497
   0.66666940  0.33333460  0.38815354
   0.66666729  0.83333512  0.38815470
  -0.00048756 -0.00068311  0.61161858
  -0.00052909  0.50051078  0.61123066
   0.49979770 -0.00056396  0.61200368
   0.50149338  0.50093394  0.61113829
   0.33328505  0.16660063  0.50001690
   0.33333869  0.66671194  0.50001193
   0.83332339  0.16662262  0.50002543
   0.83338455  0.66673314  0.49999707
   0.16667798  0.33335697  0.47106794
   0.16664291  0.83330613  0.47107059
   0.66668427  0.33336955  0.47107360
   0.66666140  0.83330543  0.47107193
   0.00000206  0.00000095  0.36053365
   0.00000566  0.50000509  0.36053371
   0.49999607 -0.00000433  0.36053340
   0.49999827  0.50000448  0.36053317
   0.33357680  0.16667893  0.58281668
   0.33345016  0.66680288  0.58278610
   0.83298332  0.16658675  0.58279860
   0.83326056  0.66655958  0.58276992
  -0.00003185 -0.00006672  0.52891623
  -0.00002496  0.50004201  0.52893692
   0.49999005 -0.00001103  0.52890005
   0.50006886  0.50004227  0.52895468
   0.33332872  0.16666381  0.41720462
   0.33333053  0.66666728  0.41720738
   0.83333753  0.16666707  0.41720550
   0.83333870  0.66667174  0.41720895
   0.16458748  0.33277949  0.63488618
   0.16633232  0.83318552  0.63935829
   0.66671106  0.33357936  0.63955658
   0.66713491  0.83334680  0.63926222
   0.27759322  0.49961685  0.72507373
   0.19410196  0.32955074  0.72886976
Direct configuration=     6
   0.16666256  0.33333304  0.38816698
   0.16666911  0.83333439  0.38816737
   0.66666837  0.33333175  0.38816694
   0.66666679  0.83333724  0.38816750
  -0.00048352 -0.00067900  0.61157189
  -0.00058164  0.50048916  0.61119260
   0.49980430 -0.00052332  0.61198729
   0.50149268  0.50089792  0.61109739
   0.33328758  0.16656413  0.50002740
   0.33335622  0.66675798  0.50001468
   0.83328630  0.16659264  0.50003634
   0.83340104  0.66675365  0.49997416
   0.16668400  0.33336332  0.47104803
   0.16663067  0.83329683  0.47104930
   0.66668931  0.33338550  0.47105303
   0.66666233  0.83329235  0.47105085
   0.00000133 -0.00000038  0.36048581
   0.00000502  0.50000566  0.36048589
   0.49999602 -0.00000448  0.36048557
   0.49999943  0.50000511  0.36048544
   0.33368228  0.16659998  0.58283445
   0.33356954  0.66700352  0.58279820
   0.83274112  0.16646395  0.58280681
   0.83324577  0.66655787  0.58278095
  -0.00004663 -0.00009929  0.52892841
  -0.00003617  0.50006427  0.52894039
   0.49998076 -0.00002207  0.52891388
   0.50010431  0.50006400  0.52896067
   0.33332879  0.16666274  0.41716302
   0.33333109  0.66666861  0.41716584
   0.83333634  0.16666607  0.41716351
   0.83333902  0.66667229  0.41716833
   0.16459580  0.33280172  0.63485909
   0.16632425  0.83319394  0.63940315
   0.66669736  0.33359014  0.63960586
   0.66715625  0.83334094  0.63930385
   0.27757470  0.49959315  0.72513030
   0.19418850  0.32955464  0.72914882
Direct configuration=     7
   0.16666004  0.33333065  0.38820639
   0.16667591  0.83333899  0.38820460
   0.66666530  0.33332323  0.38820715
   0.66666529  0.83334360  0.38820587
  -0.00047141 -0.00066668  0.61143181
  -0.00073928  0.50042431  0.61107840
   0.49982409 -0.00040140  0.61193811
   0.50149059  0.50078987  0.61097467
   0.33329517  0.16645464  0.50005889
   0.33340883  0.66689612  0.50002292
   0.83317503  0.16650269  0.50006907
   0.83345052  0.66681517  0.49990544
   0.16670206  0.33338237  0.47098827
   0.16659396  0.83326893  0.47098543
   0.66670443  0.33343334  0.47099134
   0.66666513  0.83325313  0.47098761
  -0.00000086 -0.00000437  0.36034230
   0.00000312  0.50000738  0.36034244
   0.49999586 -0.00000491  0.36034206
   0.50000292  0.50000699  0.36034225
   0.33399872  0.16636315  0.58288776
   0.33392767  0.66760547  0.58283450
   0.83201454  0.16609554  0.58283144
   0.83320140  0.66655276  0.58281406
  -0.00009095 -0.00019699  0.52896494
  -0.00006981  0.50013103  0.52895080
   0.49995290 -0.00005519  0.52895536
   0.50021064  0.50012918  0.52897865
   0.33332902  0.16665951  0.41703820
   0.33333276  0.66667261  0.41704121
   0.83333278  0.16666306  0.41703756
   0.83333998  0.66667396  0.41704647
   0.16462078  0.33286842  0.63477783
   0.16630005  0.83321920  0.63953773
   0.66665627  0.33362247  0.63975369
   0.66722028  0.83332337  0.63942875
   0.27751912  0.49952207  0.72529999
   0.19444815  0.32956633  0.72998602
Direct configuration=     8
   0.16665499  0.33332587  0.38828521
   0.16668952  0.83334819  0.38827904
   0.66665916  0.33330617  0.38828757
   0.66666230  0.83335633  0.38828262
  -0.00044717 -0.00064204  0.61115166
  -0.00105456  0.50029462  0.61084999
   0.49986368 -0.00015757  0.61183976
   0.50148641  0.50057377  0.61072925
   0.33331034  0.16623565  0.50012186
   0.33351404  0.66717240  0.50003942
   0.83295249  0.16632279  0.50013453
   0.83354948  0.66693821  0.49976800
   0.16673816  0.33342047  0.47086876
   0.16652054  0.83321313  0.47085770
   0.66673468  0.33352901  0.47086795
   0.66667073  0.83317468  0.47086114
  -0.00000525 -0.00001235  0.36005528
  -0.00000069  0.50001083  0.36005554
   0.49999554 -0.00000578  0.36005505
   0.50000990  0.50001075  0.36005587
   0.33463160  0.16588949  0.58299438
   0.33464392  0.66880935  0.58290711
   0.83056138  0.16535874  0.58288069
   0.83311266  0.66654252  0.58288027
  -0.00017961 -0.00039238  0.52903801
  -0.00013709  0.50026457  0.52897163
   0.49989717 -0.00012143  0.52903832
   0.50042332  0.50025955  0.52901460
   0.33332948  0.16665305  0.41678856
   0.33333612  0.66668060  0.41679196
   0.83332567  0.16665704  0.41678564
   0.83334190  0.66667728  0.41680276
   0.16467073  0.33300181  0.63461529
   0.16625165  0.83326972  0.63980689
   0.66657408  0.33368713  0.64004936
   0.66734833  0.83328822  0.63967854
   0.27740796  0.49937991  0.72563939
   0.19496744  0.32958971  0.73166042
Direct configuration=     9
   0.16665266  0.33332367  0.38832152
   0.16669579  0.83335243  0.38831335
   0.66665633  0.33329832  0.38832462
   0.66666092  0.83336219  0.38831799
  -0.00043600 -0.00063068  0.61102258
  -0.00119983  0.50023486  0.61074476
   0.49988192 -0.00004522  0.61179444
   0.50148448  0.50047421  0.61061617
   0.33331734  0.16613475  0.50015088
   0.33356251  0.66729969  0.50004702
   0.83284995  0.16623989  0.50016469
   0.83359508  0.66699490  0.49970468
   0.16675480  0.33343803  0.47081370
   0.16648671  0.83318742  0.47079884
   0.66674861  0.33357309  0.47081109
   0.66667331  0.83313853  0.47080287
  -0.00000727 -0.00001603  0.35992303
  -0.00000245  0.50001241  0.35992335
   0.49999540 -0.00000618  0.35992281
   0.50001312  0.50001248  0.35992392
   0.33492320  0.16567124  0.58304350
   0.33497394  0.66936404  0.58294056
   0.82989183  0.16501925  0.58290338
   0.83307178  0.66653781  0.58291077
  -0.00022046 -0.00048242  0.52907167
  -0.00016809  0.50032609  0.52898122
   0.49987150 -0.00015195  0.52907654
   0.50052131  0.50031962  0.52903117
   0.33332969  0.16665008  0.41667353
   0.33333767  0.66668428  0.41667711
   0.83332239  0.16665427  0.41666957
   0.83334278  0.66667881  0.41669047
   0.16469375  0.33306328  0.63454041
   0.16622935  0.83329299  0.63993091
   0.66653622  0.33371692  0.64018559
   0.66740732  0.83327203  0.63979363
   0.27735674  0.49931441  0.72579576
   0.19520670  0.32960049  0.73243191
Direct configuration=    10
   0.16665148  0.33332071  0.38829422
   0.16671331  0.83336360  0.38827539
   0.66664661  0.33327946  0.38829209
   0.66665440  0.83337300  0.38828165
  -0.00048307 -0.00070449  0.61099929
  -0.00125957  0.50026171  0.61073407
   0.49987063 -0.00003474  0.61182351
   0.50151340  0.50048689  0.61060605
   0.33334709  0.16610930  0.50014414
   0.33359008  0.66735323  0.50003908
   0.83278906  0.16621115  0.50015777
   0.83359572  0.66699533  0.49965441
   0.16675898  0.33343696  0.47082851
   0.16647389  0.83318487  0.47080485
   0.66675031  0.33358572  0.47081957
   0.66668032  0.83313015  0.47080938
  -0.00001077 -0.00002351  0.35985692
  -0.00000474  0.50001693  0.35985743
   0.49999439 -0.00000764  0.35985623
   0.50001970  0.50001663  0.35985822
   0.33508861  0.16554733  0.58305493
   0.33515062  0.66968041  0.58294418
   0.82951281  0.16484043  0.58290092
   0.83305502  0.66652779  0.58291206
  -0.00022780 -0.00051011  0.52905232
  -0.00018375  0.50034757  0.52894919
   0.49984966 -0.00016055  0.52904280
   0.50055919  0.50033431  0.52899865
   0.33333040  0.16664040  0.41662018
   0.33334230  0.66669660  0.41662166
   0.83331282  0.16664653  0.41661559
   0.83334676  0.66668383  0.41663347
   0.16473298  0.33310303  0.63455767
   0.16616318  0.83328752  0.63998507
   0.66654264  0.33378042  0.64024869
   0.66747758  0.83325199  0.63984493
   0.27709997  0.49881601  0.72590919
   0.19556680  0.33004120  0.73290569
Direct configuration=    11
   0.16665010  0.33331730  0.38826264
   0.16673357  0.83337652  0.38823149
   0.66663536  0.33325764  0.38825447
   0.66664685  0.83338551  0.38823962
  -0.00053750 -0.00078985  0.61097235
  -0.00132867  0.50029276  0.61072172
   0.49985758 -0.00002261  0.61185713
   0.50154685  0.50050156  0.61059436
   0.33338150  0.16607987  0.50013634
   0.33362197  0.66741516  0.50002991
   0.83271862  0.16617791  0.50014976
   0.83359647  0.66699582  0.49959628
   0.16676381  0.33343572  0.47084564
   0.16645906  0.83318192  0.47081179
   0.66675227  0.33360033  0.47082939
   0.66668843  0.83312046  0.47081692
  -0.00001481 -0.00003216  0.35978046
  -0.00000739  0.50002216  0.35978119
   0.49999323 -0.00000934  0.35977922
   0.50002730  0.50002143  0.35978223
   0.33527993  0.16540400  0.58306815
   0.33535497  0.67004633  0.58294837
   0.82907442  0.16463360  0.58289808
   0.83303564  0.66651620  0.58291354
  -0.00023630 -0.00054214  0.52902994
  -0.00020187  0.50037241  0.52891215
   0.49982441 -0.00017050  0.52900378
   0.50060302  0.50035131  0.52896103
   0.33333122  0.16662921  0.41655847
   0.33334765  0.66671086  0.41655752
   0.83330176  0.16663759  0.41655316
   0.83335137  0.66668964  0.41656754
   0.16477836  0.33314901  0.63457764
   0.16608665  0.83328120  0.64004771
   0.66655006  0.33385386  0.64032167
   0.66755883  0.83322881  0.63990427
   0.27680297  0.49823954  0.72604037
   0.19598331  0.33055095  0.73345370
Direct configuration=    12
   0.16664736  0.33331048  0.38819949
   0.16677409  0.83340235  0.38814370
   0.66661288  0.33321402  0.38817923
   0.66663175  0.83341052  0.38815555
  -0.00064637 -0.00096058  0.61091848
  -0.00146686  0.50035487  0.61069700
   0.49983146  0.00000165  0.61192438
   0.50161375  0.50053089  0.61057096
   0.33345032  0.16602100  0.50012075
   0.33368574  0.66753902  0.50001155
   0.83257775  0.16611142  0.50013374
   0.83359796  0.66699680  0.49948000
   0.16677348  0.33343325  0.47087989
   0.16642940  0.83317603  0.47082568
   0.66675620  0.33362956  0.47084901
   0.66670466  0.83310108  0.47083200
  -0.00002290 -0.00004946  0.35962753
  -0.00001268  0.50003262  0.35962869
   0.49999090 -0.00001272  0.35962521
   0.50004251  0.50003103  0.35963025
   0.33566257  0.16511736  0.58309460
   0.33576367  0.67077817  0.58295675
   0.82819763  0.16421995  0.58289239
   0.83299688  0.66649302  0.58291651
  -0.00025329 -0.00060621  0.52898519
  -0.00023811  0.50042210  0.52883806
   0.49977390 -0.00019039  0.52892573
   0.50069067  0.50038530  0.52888581
   0.33333286  0.16660682  0.41643505
   0.33335836  0.66673937  0.41642923
   0.83327963  0.16661970  0.41642828
   0.83336057  0.66670124  0.41643568
   0.16486912  0.33324097  0.63461758
   0.16593360  0.83326855  0.64017299
   0.66656491  0.33400075  0.64046763
   0.66772134  0.83318245  0.64002295
   0.27620898  0.49708660  0.72630275
   0.19681632  0.33157045  0.73454971
Direct configuration=    13
   0.16664702  0.33330926  0.38818198
   0.16678300  0.83340788  0.38812031
   0.66660789  0.33320461  0.38815851
   0.66662818  0.83341569  0.38813293
  -0.00067257 -0.00100084  0.61091496
  -0.00148886  0.50037353  0.61069859
   0.49982380 -0.00000058  0.61194360
   0.50162940  0.50054499  0.61057347
   0.33346566  0.16601408  0.50011517
   0.33369725  0.66755921  0.50000668
   0.83255187  0.16610146  0.50012793
   0.83359532  0.66699334  0.49945718
   0.16677440  0.33343130  0.47089052
   0.16642465  0.83317642  0.47083158
   0.66675624  0.33363331  0.47085610
   0.66670845  0.83309923  0.47083817
  -0.00002460 -0.00005308  0.35959999
  -0.00001387  0.50003478  0.35960129
   0.49999046 -0.00001335  0.35959733
   0.50004576  0.50003302  0.35960296
   0.33573168  0.16506593  0.58309742
   0.33583583  0.67091042  0.58295649
   0.82803989  0.16414778  0.58288961
   0.83299056  0.66648742  0.58291486
  -0.00025426 -0.00061440  0.52897300
  -0.00024415  0.50042921  0.52882080
   0.49976343 -0.00019307  0.52890467
   0.50070383  0.50038886  0.52886773
   0.33333345  0.16660179  0.41641353
   0.33336087  0.66674594  0.41640659
   0.83327443  0.16661565  0.41640651
   0.83336256  0.66670373  0.41641191
   0.16488720  0.33325698  0.63463147
   0.16589635  0.83326275  0.64019419
   0.66657243  0.33403559  0.64049309
   0.66775739  0.83317210  0.64004321
   0.27616728  0.49701646  0.72634574
   0.19690279  0.33161259  0.73476992
Direct configuration=    14
   0.16664600  0.33330561  0.38812945
   0.16680975  0.83342447  0.38805016
   0.66659294  0.33317638  0.38809633
   0.66661748  0.83343121  0.38806507
  -0.00075117 -0.00112160  0.61090440
  -0.00155487  0.50042951  0.61070337
   0.49980082 -0.00000725  0.61200125
   0.50167636  0.50058730  0.61058099
   0.33351170  0.16599331  0.50009842
   0.33373177  0.66761976  0.49999204
   0.83247422  0.16607160  0.50011050
   0.83358740  0.66698298  0.49938874
   0.16677715  0.33342547  0.47092239
   0.16641039  0.83317760  0.47084927
   0.66675636  0.33364455  0.47087736
   0.66671982  0.83309367  0.47085667
  -0.00002970 -0.00006396  0.35951740
  -0.00001744  0.50004126  0.35951909
   0.49998913 -0.00001525  0.35951370
   0.50005550  0.50003900  0.35952111
   0.33593901  0.16491165  0.58310590
   0.33605231  0.67130716  0.58295569
   0.82756665  0.16393129  0.58288129
   0.83297161  0.66647063  0.58290990
  -0.00025716 -0.00063897  0.52893642
  -0.00026228  0.50045054  0.52876902
   0.49973201 -0.00020110  0.52884149
   0.50074330  0.50039957  0.52881349
   0.33333519  0.16658671  0.41634897
   0.33336840  0.66676567  0.41633865
   0.83325884  0.16660353  0.41634121
   0.83336852  0.66671117  0.41634059
   0.16494146  0.33330499  0.63467313
   0.16578461  0.83324535  0.64025779
   0.66659499  0.33414009  0.64056945
   0.66786554  0.83314104  0.64010402
   0.27604218  0.49680605  0.72647472
   0.19716219  0.33173898  0.73543055
Direct configuration=    15
   0.16664396  0.33329830  0.38802440
   0.16686324  0.83345765  0.38790987
   0.66656304  0.33311991  0.38797197
   0.66659609  0.83346226  0.38792934
  -0.00090837 -0.00136313  0.61088327
  -0.00168688  0.50054146  0.61071292
   0.49975486 -0.00002059  0.61211656
   0.50177026  0.50067191  0.61059602
   0.33360378  0.16595176  0.50006493
   0.33380082  0.66774088  0.49996277
   0.83231893  0.16601188  0.50007562
   0.83357157  0.66696224  0.49925185
   0.16678266  0.33341381  0.47098614
   0.16638187  0.83317997  0.47088464
   0.66675662  0.33366705  0.47091990
   0.66674256  0.83308257  0.47089367
  -0.00003991 -0.00008571  0.35935221
  -0.00002456  0.50005423  0.35935468
   0.49998648 -0.00001904  0.35934644
   0.50007499  0.50005095  0.35935739
   0.33635368  0.16460309  0.58312284
   0.33648528  0.67210065  0.58295411
   0.82662018  0.16349831  0.58286465
   0.83293369  0.66643706  0.58289997
  -0.00026297 -0.00068810  0.52886327
  -0.00029854  0.50049321  0.52866547
   0.49966919 -0.00021715  0.52871513
   0.50082225  0.50042098  0.52870502
   0.33333869  0.16655654  0.41621985
   0.33338345  0.66680512  0.41620278
   0.83322765  0.16657927  0.41621059
   0.83338045  0.66672607  0.41619797
   0.16504998  0.33340102  0.63475646
   0.16556111  0.83321054  0.64038500
   0.66664011  0.33434911  0.64072217
   0.66808184  0.83307893  0.64022563
   0.27579196  0.49638523  0.72673269
   0.19768100  0.33199178  0.73675182
Direct configuration=    16
   0.16663988  0.33328370  0.38781430
   0.16697022  0.83352400  0.38762927
   0.66650323  0.33300699  0.38772326
   0.66655330  0.83352434  0.38765788
  -0.00122277 -0.00184619  0.61084102
  -0.00195090  0.50076537  0.61073202
   0.49966293 -0.00004726  0.61234717
   0.50195807  0.50084114  0.61062609
   0.33378793  0.16586868  0.49999795
   0.33393891  0.66798311  0.49990423
   0.83200834  0.16589243  0.50000588
   0.83353990  0.66692077  0.49897808
   0.16679367  0.33339049  0.47111364
   0.16632483  0.83318469  0.47095540
   0.66675712  0.33371204  0.47100497
   0.66678805  0.83306035  0.47096766
  -0.00006032 -0.00012920  0.35902182
  -0.00003882  0.50008016  0.35902587
   0.49998117 -0.00002663  0.35901191
   0.50011397  0.50007485  0.35902996
   0.33718302  0.16398597  0.58315674
   0.33735122  0.67368761  0.58295095
   0.82472725  0.16263234  0.58283137
   0.83285787  0.66636991  0.58288011
  -0.00027458 -0.00078638  0.52871696
  -0.00037106  0.50057855  0.52845835
   0.49954355 -0.00024926  0.52846241
   0.50098014  0.50046379  0.52848808
   0.33334568  0.16649620  0.41596160
   0.33341356  0.66688401  0.41593104
   0.83316526  0.16653077  0.41594936
   0.83340430  0.66675585  0.41591271
   0.16526701  0.33359308  0.63492312
   0.16511413  0.83314094  0.64063940
   0.66673035  0.33476714  0.64102761
   0.66851444  0.83295470  0.64046884
   0.27529154  0.49554358  0.72724862
   0.19871861  0.33249737  0.73939435
Direct configuration=    17
   0.16663172  0.33325448  0.38739409
   0.16718418  0.83365671  0.38706809
   0.66638360  0.33278113  0.38722583
   0.66646772  0.83364851  0.38711497
  -0.00185157 -0.00281232  0.61075651
  -0.00247895  0.50121318  0.61077023
   0.49947908 -0.00010062  0.61280838
   0.50233368  0.50117959  0.61068622
   0.33415624  0.16570251  0.49986399
   0.33421509  0.66846758  0.49978715
   0.83138716  0.16565353  0.49986639
   0.83347656  0.66683782  0.49843053
   0.16681569  0.33334384  0.47136863
   0.16621075  0.83319414  0.47109690
   0.66675813  0.33380203  0.47117511
   0.66687903  0.83301591  0.47111564
  -0.00010115 -0.00021620  0.35836106
  -0.00006733  0.50013203  0.35836824
   0.49997056 -0.00004180  0.35834285
   0.50019192  0.50012265  0.35837509
   0.33884170  0.16275173  0.58322453
   0.33908310  0.67686154  0.58294462
   0.82094137  0.16090041  0.58276480
   0.83270621  0.66623562  0.58284041
  -0.00029781 -0.00098293  0.52842436
  -0.00051610  0.50074922  0.52804411
   0.49929226 -0.00031348  0.52795697
   0.50129593  0.50054942  0.52805420
   0.33335966  0.16637553  0.41544511
   0.33347378  0.66704181  0.41538757
   0.83304050  0.16643375  0.41542689
   0.83345201  0.66681543  0.41534221
   0.16570108  0.33397719  0.63525644
   0.16422017  0.83300172  0.64114822
   0.66691083  0.33560321  0.64163849
   0.66937965  0.83270625  0.64095527
   0.27429070  0.49386029  0.72828047
   0.20079383  0.33350856  0.74467941
Direct configuration=    18
   0.16663749  0.33327512  0.38769093
   0.16703303  0.83356296  0.38746452
   0.66646811  0.33294068  0.38757723
   0.66652818  0.83356080  0.38749850
  -0.00140737 -0.00212982  0.61081621
  -0.00210592  0.50089683  0.61074324
   0.49960896 -0.00006293  0.61248257
   0.50206834  0.50094050  0.61064374
   0.33389606  0.16581990  0.49995863
   0.33401999  0.66812534  0.49986986
   0.83182597  0.16582229  0.49996493
   0.83352130  0.66689642  0.49881733
   0.16680013  0.33337679  0.47118850
   0.16629134  0.83318747  0.47099694
   0.66675742  0.33373846  0.47105492
   0.66681476  0.83304730  0.47101110
  -0.00007231 -0.00015474  0.35882784
  -0.00004719  0.50009539  0.35883281
   0.49997806 -0.00003108  0.35881549
   0.50013685  0.50008888  0.35883770
   0.33766997  0.16362363  0.58317664
   0.33785966  0.67461940  0.58294909
   0.82361581  0.16212389  0.58281183
   0.83281335  0.66633049  0.58286846
  -0.00028140 -0.00084408  0.52863106
  -0.00041364  0.50062865  0.52833674
   0.49946978 -0.00026811  0.52831402
   0.50107285  0.50048893  0.52836071
   0.33334979  0.16646078  0.41580997
   0.33343124  0.66693034  0.41577149
   0.83312864  0.16650229  0.41579597
   0.83341831  0.66677334  0.41574523
   0.16539445  0.33370584  0.63502098
   0.16485169  0.83310007  0.64078878
   0.66678333  0.33501259  0.64120695
   0.66876845  0.83288177  0.64061164
   0.27499772  0.49504941  0.72755154
   0.19932784  0.33279423  0.74094591
Direct configuration=    19
   0.16663701  0.33327339  0.38766609
   0.16704568  0.83357081  0.38743135
   0.66646104  0.33292733  0.38754782
   0.66652312  0.83356814  0.38746640
  -0.00144455 -0.00218694  0.61081121
  -0.00213714  0.50092331  0.61074550
   0.49959809 -0.00006608  0.61250984
   0.50209055  0.50096051  0.61064730
   0.33391783  0.16581007  0.49995071
   0.33403631  0.66815398  0.49986294
   0.83178925  0.16580817  0.49995668
   0.83351756  0.66689151  0.49878496
   0.16680144  0.33337404  0.47120357
   0.16628460  0.83318803  0.47100530
   0.66675748  0.33374378  0.47106497
   0.66682014  0.83304468  0.47101985
  -0.00007472 -0.00015989  0.35878877
  -0.00004888  0.50009845  0.35879393
   0.49997743 -0.00003198  0.35877593
   0.50014146  0.50009171  0.35879899
   0.33776803  0.16355066  0.58318065
   0.33796205  0.67480704  0.58294872
   0.82339198  0.16202150  0.58280789
   0.83280438  0.66632255  0.58286611
  -0.00028277 -0.00085570  0.52861376
  -0.00042222  0.50063874  0.52831225
   0.49945492 -0.00027191  0.52828414
   0.50109152  0.50049399  0.52833506
   0.33335061  0.16645364  0.41577943
   0.33343480  0.66693967  0.41573936
   0.83312126  0.16649655  0.41576508
   0.83342113  0.66677686  0.41571150
   0.16542011  0.33372855  0.63504068
   0.16479883  0.83309183  0.64081886
   0.66679401  0.33506202  0.64124306
   0.66881960  0.83286708  0.64064040
   0.27493855  0.49494989  0.72761255
   0.19945053  0.33285401  0.74125836
Direct configuration=    20
   0.16664060  0.33327616  0.38759173
   0.16706697  0.83358077  0.38733132
   0.66644896  0.33290796  0.38745306
   0.66651011  0.83357512  0.38736733
  -0.00153355 -0.00231384  0.61084619
  -0.00216136  0.50100218  0.61078809
   0.49956079 -0.00010412  0.61259374
   0.50213931  0.50104159  0.61069714
   0.33395790  0.16582037  0.49992218
   0.33405426  0.66817460  0.49984026
   0.83174091  0.16580254  0.49992526
   0.83349692  0.66686593  0.49873353
   0.16679286  0.33335766  0.47123072
   0.16627649  0.83319788  0.47101157
   0.66675577  0.33373948  0.47107393
   0.66683662  0.83305707  0.47102783
  -0.00007825 -0.00016625  0.35872149
  -0.00005392  0.50010072  0.35872803
   0.49997859 -0.00003022  0.35870444
   0.50014892  0.50009437  0.35873369
   0.33788153  0.16347655  0.58317638
   0.33806119  0.67502056  0.58294187
   0.82314627  0.16193882  0.58279659
   0.83279670  0.66629274  0.58284569
  -0.00026696 -0.00083439  0.52857275
  -0.00042167  0.50063136  0.52826650
   0.49941883 -0.00027268  0.52818736
   0.50108185  0.50047799  0.52828197
   0.33335889  0.16643831  0.41572926
   0.33344607  0.66696514  0.41568617
   0.83309805  0.16648293  0.41571533
   0.83342439  0.66678087  0.41565039
   0.16544989  0.33375069  0.63511432
   0.16459939  0.83302296  0.64085461
   0.66687576  0.33524422  0.64129300
   0.66896715  0.83281414  0.64067759
   0.27463131  0.49435067  0.72777285
   0.19988344  0.33334918  0.74190585
Direct configuration=    21
   0.16665140  0.33328445  0.38736864
   0.16713085  0.83361067  0.38703124
   0.66641275  0.33284986  0.38716878
   0.66647108  0.83359606  0.38707012
  -0.00180055 -0.00269455  0.61095111
  -0.00223403  0.50123879  0.61091588
   0.49944891 -0.00021825  0.61284544
   0.50228560  0.50128483  0.61084669