CeO2                                    
           1
     7.707464    0.000000    0.000000
    -3.853732    6.674860    0.000000
     0.000000    0.000000   28.319031
   Ce   O    C    O 
  12  24   1   1
Direct configuration=     1
   0.16666700  0.33333300  0.38888900
   0.16666700  0.83333300  0.38888900
   0.66666700  0.33333300  0.38888900
   0.66666700  0.83333300  0.38888900
   0.00000000  0.00000000  0.61111100
   0.00000000  0.50000000  0.61111100
   0.50000000  0.00000000  0.61111100
   0.50000000  0.50000000  0.61111100
   0.33333300  0.16666700  0.50000000
   0.33333300  0.66666700  0.50000000
   0.83333300  0.16666700  0.50000000
   0.83333300  0.66666700  0.50000000
   0.16666700  0.33333300  0.47222200
   0.16666700  0.83333300  0.47222200
   0.66666700  0.33333300  0.47222200
   0.66666700  0.83333300  0.47222200
   0.00000000  0.00000000  0.36111100
   0.00000000  0.50000000  0.36111100
   0.50000000  0.00000000  0.36111100
   0.50000000  0.50000000  0.36111100
   0.33333300  0.16666700  0.58333300
   0.33333300  0.66666700  0.58333300
   0.83333300  0.16666700  0.58333300
   0.83333300  0.66666700  0.58333300
   0.00000000  0.00000000  0.52777800
   0.00000000  0.50000000  0.52777800
   0.50000000  0.00000000  0.52777800
   0.50000000  0.50000000  0.52777800
   0.33333300  0.16666700  0.41666700
   0.33333300  0.66666700  0.41666700
   0.83333300  0.16666700  0.41666700
   0.83333300  0.66666700  0.41666700
   0.16666700  0.33333300  0.63888900
   0.16666700  0.83333300  0.63888900
   0.66666700  0.33333300  0.63888900
   0.66666700  0.83333300  0.63888900
   0.27777800  0.00000000  0.76422100
   0.27777800  0.00000000  0.72389500
Direct configuration=     2
   0.16666538  0.33333472  0.38860485
   0.16666629  0.83333018  0.38860483
   0.66666964  0.33333320  0.38860406
   0.66666614  0.83333451  0.38860524
   0.00013156 -0.00014432  0.61131150
   0.00015080  0.50037331  0.61132798
   0.49973844 -0.00007383  0.61134690
   0.50000996  0.49997615  0.61132320
   0.33332419  0.16665484  0.49999430
   0.33332492  0.66667062  0.49999777
   0.83333641  0.16666863  0.49999473
   0.83334691  0.66667393  0.49999901
   0.16667019  0.33333067  0.47180114
   0.16666896  0.83333848  0.47179876
   0.66666166  0.33333136  0.47180239
   0.66666682  0.83333216  0.47179966
  -0.00000462 -0.00000559  0.36091166
   0.00000953  0.50000806  0.36091033
   0.49999535 -0.00001303  0.36091100
   0.50000024  0.50001076  0.36091057
   0.33335686  0.16671965  0.58311967
   0.33343454  0.66664903  0.58311665
   0.83331961  0.16662953  0.58312278
   0.83320048  0.66664713  0.58311435
  -0.00000159  0.00001076  0.52820893
  -0.00000473  0.49998495  0.52819972
   0.50001150  0.00000666  0.52820850
   0.49999506  0.49999600  0.52820820
   0.33332459  0.16665930  0.41689226
   0.33333846  0.66667237  0.41689054
   0.83333348  0.16665664  0.41689118
   0.83333751  0.66667922  0.41689105
   0.16670216  0.33333592  0.63914128
   0.16552881  0.83166597  0.63844010
   0.66670214  0.33340211  0.63912361
   0.66666787  0.83332669  0.63914692
   0.27755525 -0.00029098  0.76473386
   0.27905522  0.00178424  0.72410650
Direct configuration=     3
   0.16666425  0.33333591  0.38840728
   0.16666580  0.83332822  0.38840725
   0.66667148  0.33333335  0.38840593
   0.66666555  0.83333556  0.38840794
   0.00022304 -0.00024467  0.61145090
   0.00025566  0.50063288  0.61147884
   0.49955658 -0.00012517  0.61151092
   0.50001689  0.49995956  0.61147074
   0.33331806  0.16664638  0.49999034
   0.33331930  0.66667314  0.49999622
   0.83333878  0.16666977  0.49999107
   0.83335658  0.66667875  0.49999832
   0.16667241  0.33332904  0.47150852
   0.16667032  0.83334229  0.47150447
   0.66665794  0.33333022  0.47151063
   0.66666669  0.83333158  0.47150601
  -0.00000783 -0.00000948  0.36077306
   0.00001615  0.50001367  0.36077081
   0.49999211 -0.00002209  0.36077194
   0.50000041  0.50001824  0.36077121
   0.33337345  0.16675626  0.58297134
   0.33350514  0.66663653  0.58296622
   0.83331031  0.16660348  0.58297661
   0.83310834  0.66663332  0.58296232
  -0.00000269  0.00001825  0.52850856
  -0.00000802  0.49997448  0.52849295
   0.50001949  0.00001130  0.52850784
   0.49999163  0.49999322  0.52850732
   0.33331874  0.16665394  0.41704888
   0.33334225  0.66667610  0.41704597
   0.83333381  0.16664943  0.41704706
   0.83334064  0.66668771  0.41704684
   0.16672660  0.33333795  0.63931669
   0.16473741  0.83050686  0.63812798
   0.66672658  0.33345017  0.63928674
   0.66666848  0.83332230  0.63932625
   0.27740037 -0.00049331  0.76509047
   0.27994329  0.00302485  0.72425356
Direct configuration=     4
   0.16666422  0.33333642  0.38834499
   0.16666548  0.83332759  0.38834479
   0.66667198  0.33333374  0.38834361
   0.66666536  0.83333555  0.38834574
   0.00022432 -0.00026685  0.61149215
   0.00027039  0.50067663  0.61152397
   0.49953231 -0.00013337  0.61156023
   0.50001865  0.49995886  0.61152113
   0.33331817  0.16664576  0.49998849
   0.33331745  0.66667259  0.49999690
   0.83333954  0.16667212  0.49999257
   0.83335752  0.66667746  0.49999889
   0.16667383  0.33332793  0.47140300
   0.16667130  0.83334474  0.47139873
   0.66665548  0.33332934  0.47140528
   0.66666668  0.83333129  0.47140036
  -0.00000846 -0.00001028  0.36071365
   0.00001771  0.50001496  0.36071117
   0.49999134 -0.00002413  0.36071242
   0.50000040  0.50001989  0.36071164
   0.33338022  0.16676527  0.58293144
   0.33354810  0.66663392  0.58292176
   0.83329859  0.16658333  0.58293531
   0.83305301  0.66662462  0.58291575
   0.00000062  0.00002045  0.52861465
  -0.00000757  0.49997457  0.52859526
   0.50001842  0.00001296  0.52861482
   0.49998887  0.49998907  0.52861202
   0.33331749  0.16665274  0.41709038
   0.33334288  0.66667682  0.41708713
   0.83333402  0.16664808  0.41708818
   0.83334153  0.66668949  0.41708805
   0.16674164  0.33333346  0.63938835
   0.16445038  0.83008671  0.63802032
   0.66672355  0.33346015  0.63935389
   0.66666711  0.83332326  0.63939985
   0.27734561 -0.00056395  0.76507762
   0.28029785  0.00351885  0.72447153
Direct configuration=     5
   0.16666419  0.33333694  0.38828146
   0.16666516  0.83332694  0.38828108
   0.66667249  0.33333414  0.38828004
   0.66666517  0.83333553  0.38828230
   0.00022564 -0.00028947  0.61153421
   0.00028542  0.50072124  0.61156999
   0.49950756 -0.00014174  0.61161054
   0.50002044  0.49995814  0.61157251
   0.33331829  0.16664512  0.49998659
   0.33331556  0.66667202  0.49999759
   0.83334032  0.16667452  0.49999410
   0.83335847  0.66667613  0.49999948
   0.16667528  0.33332679  0.47129538
   0.16667230  0.83334724  0.47129088
   0.66665296  0.33332846  0.47129782
   0.66666667  0.83333100  0.47129260
  -0.00000910 -0.00001110  0.36065306
   0.00001931  0.50001628  0.36065033
   0.49999056 -0.00002620  0.36065171
   0.50000039  0.50002157  0.36065088
   0.33338713  0.16677445  0.58289074
   0.33359192  0.66663126  0.58287641
   0.83328665  0.16656277  0.58289319
   0.83299657  0.66661575  0.58286825
   0.00000398  0.00002269  0.52872286
  -0.00000711  0.49997465  0.52869961
   0.50001732  0.00001465  0.52872394
   0.49998605  0.49998485  0.52871881
   0.33331621  0.16665151  0.41713270
   0.33334351  0.66667757  0.41712911
   0.83333424  0.16664670  0.41713012
   0.83334243  0.66669130  0.41713008
   0.16675699  0.33332887  0.63946144
   0.16415762  0.82965818  0.63791053
   0.66672047  0.33347033  0.63942238
   0.66666572  0.83332423  0.63947491
   0.27728976 -0.00063600  0.76506451
   0.28065949  0.00402271  0.72469386
Direct configuration=     6
   0.16666418  0.33333708  0.38826464
   0.16666507  0.83332677  0.38826422
   0.66667262  0.33333424  0.38826321
   0.66666512  0.83333552  0.38826550
   0.00022598 -0.00029546  0.61154535
   0.00028940  0.50073305  0.61158217
   0.49950101 -0.00014396  0.61162385
   0.50002092  0.49995795  0.61158612
   0.33331832  0.16664495  0.49998609
   0.33331505  0.66667188  0.49999778
   0.83334053  0.16667515  0.49999450
   0.83335872  0.66667578  0.49999964
   0.16667566  0.33332649  0.47126689
   0.16667256  0.83334790  0.47126233
   0.66665230  0.33332822  0.47126938
   0.66666666  0.83333092  0.47126408
  -0.00000926 -0.00001132  0.36063702
   0.00001973  0.50001662  0.36063423
   0.49999035 -0.00002675  0.36063564
   0.50000039  0.50002201  0.36063480
   0.33338896  0.16677688  0.58287997
   0.33360351  0.66663055  0.58286440
   0.83328349  0.16655733  0.58288204
   0.83298163  0.66661340  0.58285567
   0.00000488  0.00002328  0.52875151
  -0.00000699  0.49997468  0.52872723
   0.50001703  0.00001510  0.52875282
   0.49998531  0.49998373  0.52874707
   0.33331588  0.16665118  0.41714390
   0.33334368  0.66667776  0.41714022
   0.83333429  0.16664633  0.41714122
   0.83334267  0.66669178  0.41714120
   0.16676105  0.33332766  0.63948079
   0.16408013  0.82954475  0.63788146
   0.66671965  0.33347302  0.63944051
   0.66666535  0.83332449  0.63949478
   0.27727498 -0.00065508  0.76506104
   0.28075521  0.00415608  0.72475271
Direct configuration=     7
   0.16666418  0.33333705  0.38826811
   0.16666509  0.83332680  0.38826770
   0.66667259  0.33333422  0.38826668
   0.66666513  0.83333552  0.38826896
   0.00022591 -0.00029423  0.61154305
   0.00028858  0.50073062  0.61157966
   0.49950236 -0.00014350  0.61162111
   0.50002082  0.49995798  0.61158331
   0.33331831  0.16664498  0.49998620
   0.33331516  0.66667191  0.49999774
   0.83334048  0.16667502  0.49999442
   0.83335867  0.66667586  0.49999960
   0.16667558  0.33332656  0.47127276
   0.16667250  0.83334777  0.47126822
   0.66665243  0.33332827  0.47127524
   0.66666666  0.83333093  0.47126996
  -0.00000923 -0.00001127  0.36064032
   0.00001964  0.50001655  0.36063755
   0.49999039 -0.00002664  0.36063895
   0.50000039  0.50002192  0.36063811
   0.33338858  0.16677638  0.58288219
   0.33360112  0.66663070  0.58286688
   0.83328414  0.16655846  0.58288434
   0.83298471  0.66661389  0.58285826
   0.00000469  0.00002316  0.52874560
  -0.00000701  0.49997467  0.52872154
   0.50001709  0.00001501  0.52874687
   0.49998546  0.49998396  0.52874125
   0.33331595  0.16665125  0.41714159
   0.33334364  0.66667772  0.41713793
   0.83333428  0.16664641  0.41713893
   0.83334262  0.66669168  0.41713891
   0.16676021  0.33332791  0.63947680
   0.16409610  0.82956813  0.63788745
   0.66671982  0.33347246  0.63943677
   0.66666542  0.83332444  0.63949069
   0.27727803 -0.00065114  0.76506176
   0.28073548  0.00412860  0.72474058
Direct configuration=     8
   0.16666446  0.33333716  0.38827287
   0.16666480  0.83332672  0.38827225
   0.66667258  0.33333467  0.38827163
   0.66666520  0.83333513  0.38827376
   0.00018015 -0.00027804  0.61153496
   0.00025615  0.50066283  0.61157194
   0.49955779 -0.00013068  0.61161252
   0.50001949  0.49996463  0.61158562
   0.33332198  0.16664933  0.49998499
   0.33331621  0.66666932  0.49999904
   0.83334031  0.16667756  0.49999759
   0.83335369  0.66667110  0.50000031
   0.16667622  0.33332535  0.47126027
   0.16667346  0.83334975  0.47125605
   0.66665056  0.33332712  0.47126256
   0.66666686  0.83333129  0.47125777
  -0.00000859 -0.00001062  0.36061898
   0.00001883  0.50001583  0.36061629
   0.49999072 -0.00002537  0.36061767
   0.50000029  0.50002080  0.36061687
   0.33339078  0.16677197  0.58289775
   0.33363374  0.66663227  0.58287597
   0.83326997  0.16653920  0.58289628
   0.83294243  0.66660641  0.58286476
   0.00001007  0.00002369  0.52875537
  -0.00000515  0.49997890  0.52872869
   0.50001245  0.00001599  0.52875823
   0.49998232  0.49997817  0.52874890
   0.33331681  0.16665191  0.41712461
   0.33334273  0.66667709  0.41712104
   0.83333443  0.16664782  0.41712185
   0.83334253  0.66669033  0.41712191
   0.16677030  0.33331807  0.63949838
   0.16406017  0.82951624  0.63788246
   0.66670101  0.33346077  0.63945792
   0.66666350  0.83333008  0.63951340
   0.27725594 -0.00067950  0.76509252
   0.28085082  0.00428667  0.72477202
Direct configuration=     9
   0.16666529  0.33333751  0.38828716
   0.16666394  0.83332648  0.38828592
   0.66667256  0.33333602  0.38828648
   0.66666540  0.83333395  0.38828815
   0.00004285 -0.00022946  0.61151067
   0.00015885  0.50045948  0.61154879
   0.49972407 -0.00009220  0.61158678
   0.50001550  0.49998458  0.61159253
   0.33333299  0.16666236  0.49998136
   0.33331937  0.66666158  0.50000295
   0.83333978  0.16668518  0.50000709
   0.83333877  0.66665684  0.50000244
   0.16667812  0.33332175  0.47122278
   0.16667632  0.83335572  0.47121954
   0.66664493  0.33332367  0.47122450
   0.66666746  0.83333235  0.47122123
  -0.00000668 -0.00000866  0.36055496
   0.00001638  0.50001367  0.36055252
   0.49999172 -0.00002156  0.36055382
   0.49999998  0.50001742  0.36055316
   0.33339738  0.16675874  0.58294445
   0.33373157  0.66663698  0.58290324
   0.83322746  0.16648142  0.58293208
   0.83281559  0.66658398  0.58288426
   0.00002620  0.00002526  0.52878468
   0.00000043  0.49999160  0.52875016
   0.49999854  0.00001894  0.52879230
   0.49997290  0.49996082  0.52877184
   0.33331942  0.16665389  0.41707369
   0.33333998  0.66667520  0.41707036
   0.83333488  0.16665205  0.41707060
   0.83334225  0.66668627  0.41707090
   0.16680059  0.33328856  0.63956311
   0.16395239  0.82936059  0.63786749
   0.66664459  0.33342568  0.63952135
   0.66665775  0.83334700  0.63958153
   0.27718966 -0.00076457  0.76518480
   0.28119683  0.00476091  0.72486634
Direct configuration=    10
   0.16666695  0.33333820  0.38831574
   0.16666222  0.83332601  0.38831324
   0.66667251  0.33333871  0.38831618
   0.66666579  0.83333159  0.38831693
  -0.00023173 -0.00013232  0.61146209
  -0.00003574  0.50005277  0.61150249
   0.50005664 -0.00001524  0.61153529
   0.50000751  0.50002447  0.61160635
   0.33335501  0.16668843  0.49997410
   0.33332568  0.66664609  0.50001075
   0.83333873  0.16670043  0.50002609
   0.83330892  0.66662831  0.50000670
   0.16668192  0.33331454  0.47114781
   0.16668205  0.83336764  0.47114651
   0.66663368  0.33331676  0.47114839
   0.66666866  0.83333448  0.47114814
  -0.00000286 -0.00000473  0.36042692
   0.00001147  0.50000934  0.36042498
   0.49999371 -0.00001393  0.36042612
   0.49999937  0.50001066  0.36042573
   0.33341058  0.16673226  0.58303783
   0.33392724  0.66664640  0.58295778
   0.83314245  0.16636586  0.58300369
   0.83256192  0.66653912  0.58292326
   0.00005846  0.00002842  0.52884329
   0.00001159  0.50001700  0.52879308
   0.49997072  0.00002485  0.52886046
   0.49995406  0.49992611  0.52881772
   0.33332462  0.16665784  0.41697184
   0.33333449  0.66667142  0.41696900
   0.83333579  0.16666052  0.41696811
   0.83334169  0.66667815  0.41696889
   0.16686116  0.33322954  0.63969258
   0.16373682  0.82904927  0.63783755
   0.66653175  0.33335551  0.63964822
   0.66664624  0.83338084  0.63971779
   0.27705711 -0.00093470  0.76536936
   0.28188884  0.00570938  0.72505498
Direct configuration=    11
   0.16667027  0.33333959  0.38837290
   0.16665877  0.83332506  0.38836790
   0.66667242  0.33334410  0.38837557
   0.66666659  0.83332687  0.38837449
  -0.00078091  0.00006196  0.61136494
  -0.00042493  0.49923935  0.61140989
   0.50072177  0.00013868  0.61143231
   0.49999154  0.50010424  0.61163399
   0.33339904  0.16674057  0.49995959
   0.33333832  0.66661512  0.50002637
   0.83333663  0.16673092  0.50006410
   0.83324922  0.66657125  0.50001522
   0.16668952  0.33330013  0.47099788
   0.16669350  0.83339149  0.47100047
   0.66661117  0.33330295  0.47099616
   0.66667105  0.83333873  0.47100195
   0.00000478  0.00000311  0.36017084
   0.00000167  0.50000069  0.36016990
   0.49999768  0.00000132  0.36017072
   0.49999814  0.49999716  0.36017087
   0.33343697  0.16667932  0.58322459
   0.33431859  0.66666525  0.58306686
   0.83297242  0.16613475  0.58314690
   0.83205456  0.66644940  0.58300124
   0.00012297  0.00003473  0.52896051
   0.00003391  0.50006780  0.52887894
   0.49991507  0.00003665  0.52899676
   0.49991639  0.49985670  0.52890949
   0.33333503  0.16666575  0.41676814
   0.33332351  0.66666385  0.41676629
   0.83333759  0.16667746  0.41676313
   0.83334057  0.66666192  0.41676486
   0.16698229  0.33311149  0.63995152
   0.16330569  0.82842664  0.63777767
   0.66630607  0.33321516  0.63990196
   0.66662322  0.83344852  0.63999031
   0.27679202 -0.00127497  0.76573849
   0.28327287  0.00760632  0.72543227
Direct configuration=    12
   0.16666793  0.33334082  0.38832852
   0.16665793  0.83332243  0.38832409
   0.66667565  0.33334473  0.38833072
   0.66666688  0.83332824  0.38833098
  -0.00084236  0.00003617  0.61138731
  -0.00047935  0.49914837  0.61143437
   0.50073936  0.00011657  0.61145492
   0.49997325  0.50008145  0.61168090
   0.33341032  0.16676052  0.49995557
   0.33335991  0.66660664  0.50002040
   0.83333219  0.16672496  0.50004033
   0.83321566  0.66655976  0.50000883
   0.16667625  0.33328961  0.47100029
   0.16669898  0.83339829  0.47100254
   0.66661223  0.33328970  0.47099803
   0.66667721  0.83335541  0.47100646
   0.00000666  0.00000506  0.36010777
  -0.00000084  0.49999858  0.36010691
   0.49999883  0.00000529  0.36010787
   0.49999803  0.49999388  0.36010822
   0.33344943  0.16668385  0.58326942
   0.33443972  0.66663734  0.58308822
   0.83292969  0.16607466  0.58317774
   0.83186138  0.66639365  0.58301348
   0.00012648  0.00005727  0.52895532
   0.00002612  0.50004746  0.52887027
   0.49993222  0.00005588  0.52899547
   0.49989059  0.49982021  0.52889422
   0.33333890  0.16666982  0.41672355
   0.33332146  0.66666096  0.41672261
   0.83333804  0.16668221  0.41672196
   0.83333838  0.66665651  0.41672040
   0.16697158  0.33306299  0.64001365
   0.16319813  0.82827133  0.63776674
   0.66627176  0.33316176  0.63996311
   0.66663269  0.83350143  0.64006249
   0.27669869 -0.00139454  0.76586725
   0.28374603  0.00825072  0.72555506
Direct configuration=    13
   0.16666092  0.33334452  0.38819537
   0.16665542  0.83331456  0.38819269
   0.66668534  0.33334661  0.38819616
   0.66666776  0.83333234  0.38820045
  -0.00102673 -0.00004117  0.61145441
  -0.00064262  0.49887541  0.61150781
   0.50079215  0.00005022  0.61152276
   0.49991835  0.50001305  0.61182163
   0.33344418  0.16682037  0.49994352
   0.33342467  0.66658122  0.50000248
   0.83331885  0.16670707  0.49996899
   0.83311496  0.66652526  0.49998965
   0.16663645  0.33325806  0.47100752
   0.16671544  0.83341869  0.47100875
   0.66661541  0.33324994  0.47100366
   0.66669567  0.83340543  0.47102000
   0.00001232  0.00001091  0.35991857
  -0.00000838  0.49999225  0.35991796
   0.50000225  0.00001719  0.35991933
   0.49999768  0.49998407  0.35992025
   0.33348678  0.16669745  0.58340391
   0.33480310  0.66655361  0.58315231
   0.83280149  0.16589438  0.58327023
   0.83128182  0.66622643  0.58305019
   0.00013701  0.00012491  0.52893975
   0.00000276  0.49998646  0.52884427
   0.49998366  0.00011357  0.52899160
   0.49981320  0.49971073  0.52884840
   0.33335053  0.16668203  0.41658977
   0.33331532  0.66665230  0.41659160
   0.83333940  0.16669649  0.41659846
   0.83333182  0.66664028  0.41658703
   0.16693945  0.33291750  0.64020004
   0.16287545  0.82780541  0.63773396
   0.66616882  0.33300157  0.64014656
   0.66666111  0.83366018  0.64027903
   0.27641869 -0.00175325  0.76625352
   0.28516550  0.01018393  0.72592343
Direct configuration=    14
   0.16664688  0.33335191  0.38792908
   0.16665039  0.83329881  0.38792988
   0.66670472  0.33335039  0.38792706
   0.66666951  0.83334055  0.38793939
  -0.00139547 -0.00019586  0.61158861
  -0.00096915  0.49832951  0.61165469
   0.50089772 -0.00008246  0.61165845
   0.49980856  0.49987626  0.61210309
   0.33351189  0.16694008  0.49991942
   0.33355421  0.66653038  0.49996663
   0.83329218  0.16667130  0.49982633
   0.83291356  0.66645628  0.49995129
   0.16655685  0.33319495  0.47102198
   0.16674834  0.83345949  0.47102117
   0.66662177  0.33317044  0.47101490
   0.66673259  0.83350549  0.47104708
   0.00002362  0.00002261  0.35954018
  -0.00002347  0.49997958  0.35954005
   0.50000911  0.00004101  0.35954225
   0.49999699  0.49996444  0.35954431
   0.33356149  0.16672463  0.58367288
   0.33552988  0.66638616  0.58328048
   0.83254510  0.16553382  0.58345522
   0.83012270  0.66589197  0.58312360
   0.00015806  0.00026018  0.52890860
  -0.00004398  0.49986445  0.52879226
   0.50008655  0.00022895  0.52898387
   0.49965842  0.49949177  0.52875677
   0.33337379  0.16670644  0.41632220
   0.33330303  0.66663497  0.41632956
   0.83334212  0.16672504  0.41635145
   0.83331870  0.66660783  0.41632028
   0.16687519  0.33262651  0.64057281
   0.16223010  0.82687356  0.63766841
   0.66596296  0.33268119  0.64051345
   0.66671794  0.83397767  0.64071212
   0.27585871 -0.00247066  0.76702605
   0.28800444  0.01405036  0.72666017
Direct configuration=    15
   0.16661881  0.33336671  0.38739650
   0.16664034  0.83326732  0.38740425
   0.66674349  0.33335794  0.38738884
   0.66667303  0.83335696  0.38741727
  -0.00213295 -0.00050524  0.61185702
  -0.00162222  0.49723770  0.61194845
   0.50110885 -0.00034784  0.61192981
   0.49958898  0.49960267  0.61266602
   0.33364731  0.16717949  0.49987121
   0.33381328  0.66642869  0.49989495
   0.83323884  0.16659976  0.49954099
   0.83251076  0.66631830  0.49987457
   0.16639764  0.33306873  0.47105089
   0.16681416  0.83354108  0.47104600
   0.66663449  0.33301142  0.47103740
   0.66680644  0.83370560  0.47110123
   0.00004624  0.00004600  0.35878338
  -0.00005363  0.49995424  0.35878424
   0.50002282  0.00008865  0.35878809
   0.49999560  0.49992519  0.35879243
   0.33371090  0.16677901  0.58421083
   0.33698343  0.66605126  0.58353682
   0.83203230  0.16481270  0.58382521
   0.82780446  0.66522306  0.58327043
   0.00020017  0.00053073  0.52884630
  -0.00013744  0.49962044  0.52868825
   0.50029232  0.00045972  0.52896840
   0.49934886  0.49905386  0.52857350
   0.33342030  0.16675527  0.41578707
   0.33327846  0.66660032  0.41580550
   0.83334755  0.16678213  0.41585744
   0.83329247  0.66654292  0.41578678
   0.16674668  0.33204454  0.64131837
   0.16093939  0.82500987  0.63753729
   0.66555122  0.33204043  0.64124724
   0.66683161  0.83461265  0.64157829
   0.27473873 -0.00390550  0.76857112
   0.29368232  0.02178321  0.72813365
Direct configuration=    16
   0.16663165  0.33335994  0.38764014
   0.16664494  0.83328173  0.38764471
   0.66672576  0.33335449  0.38763506
   0.66667142  0.83334945  0.38765612
  -0.00179558 -0.00036371  0.61173423
  -0.00132347  0.49773716  0.61181406
   0.50101227 -0.00022644  0.61180567
   0.49968943  0.49972783  0.61240850
   0.33358536  0.16706997  0.49989326
   0.33369477  0.66647521  0.49992774
   0.83326324  0.16663249  0.49967152
   0.83269503  0.66638142  0.49990966
   0.16647047  0.33312647  0.47103766
   0.16678405  0.83350376  0.47103464
   0.66662867  0.33308417  0.47102711
   0.66677265  0.83361406  0.47107646
   0.00003589  0.00003530  0.35912959
  -0.00003983  0.49996583  0.35913000
   0.50001655  0.00006686  0.35913310
   0.49999624  0.49994314  0.35913639
   0.33364255  0.16675413  0.58396474
   0.33631848  0.66620446  0.58341955
   0.83226689  0.16514259  0.58365595
   0.82886498  0.66552906  0.58320326
   0.00018091  0.00040696  0.52887480
  -0.00009468  0.49973207  0.52873583
   0.50019818  0.00035415  0.52897548
   0.49949048  0.49925419  0.52865734
   0.33339902  0.16673293  0.41603187
   0.33328970  0.66661617  0.41604524
   0.83334507  0.16675601  0.41608343
   0.83330447  0.66657261  0.41603084
   0.16680547  0.33231077  0.64097730
   0.16152984  0.82586245  0.63759727
   0.66573958  0.33233355  0.64091156
   0.66677961  0.83432217  0.64118204
   0.27525108 -0.00324911  0.76786430
   0.29108488  0.01824568  0.72745958
Direct configuration=    17
   0.16663403  0.33336138  0.38759476
   0.16664549  0.83328191  0.38760138
   0.66672445  0.33335532  0.38758898
   0.66667001  0.83334746  0.38761078
  -0.00182775 -0.00040252  0.61176079
  -0.00135732  0.49769017  0.61184049
   0.50099135 -0.00025953  0.61183347
   0.49966802  0.49969526  0.61245203
   0.33359023  0.16707948  0.49989279
   0.33370845  0.66646863  0.49992389
   0.83326069  0.16662848  0.49965142
   0.83267149  0.66637321  0.49990524
   0.16645776  0.33311790  0.47103959
   0.16678806  0.83350803  0.47103766
   0.66663102  0.33307317  0.47102894
   0.66677745  0.83362784  0.47108039
   0.00003534  0.00003677  0.35907826
  -0.00004180  0.49996331  0.35907846
   0.50001914  0.00006931  0.35908184
   0.49999661  0.49994240  0.35908515
   0.33365053  0.16676050  0.58399813
   0.33640789  0.66616896  0.58343524
   0.83223812  0.16510074  0.58367789
   0.82870459  0.66547522  0.58321214
   0.00018223  0.00042674  0.52886681
  -0.00010238  0.49971199  0.52872811
   0.50021418  0.00037008  0.52896941
   0.49946206  0.49921492  0.52863893
   0.33340240  0.16673767  0.41599663
   0.33329046  0.66661370  0.41601069
   0.83334499  0.16675809  0.41605041
   0.83330043  0.66656874  0.41599576
   0.16677869  0.33226908  0.64102615
   0.16144165  0.82573649  0.63759346
   0.66572836  0.33229184  0.64096001
   0.66679223  0.83437114  0.64124178
   0.27518883 -0.00332697  0.76792100
   0.29148803  0.01879308  0.72762716
Direct configuration=    18
   0.16664118  0.33336569  0.38745863
   0.16664713  0.83328245  0.38747141
   0.66672053  0.33335780  0.38745075
   0.66666576  0.83334150  0.38747473
  -0.00192428 -0.00051896  0.61184049
  -0.00145887  0.49754920  0.61191976
   0.50092861 -0.00035882  0.61191686
   0.49960382  0.49959755  0.61258263
   0.33360484  0.16710803  0.49989137
   0.33374951  0.66644892  0.49991231
   0.83325304  0.16661643  0.49959110
   0.83260088  0.66634858  0.49989196
   0.16641961  0.33309218  0.47104537
   0.16680007  0.83352085  0.47104670
   0.66663807  0.33304017  0.47103442
   0.66679183  0.83366918  0.47109220
   0.00003369  0.00004120  0.35892426
  -0.00004772  0.49995573  0.35892384
   0.50002690  0.00007667  0.35892805
   0.49999773  0.49994018  0.35893143
   0.33367449  0.16677961  0.58409832
   0.33667614  0.66606243  0.58348230
   0.83215181  0.16497518  0.58374372
   0.82822342  0.66531370  0.58323876
   0.00018620  0.00048608  0.52884287
  -0.00012548  0.49965177  0.52870494
   0.50026216  0.00041785  0.52895121
   0.49937680  0.49909711  0.52858370
   0.33341251  0.16675190  0.41589090
   0.33329275  0.66660628  0.41590704
   0.83334478  0.16676431  0.41595134
   0.83328830  0.66655711  0.41589050
   0.16669836  0.33214402  0.64117269
   0.16117708  0.82535861  0.63758202
   0.66569470  0.33216670  0.64110538
   0.66683012  0.83451807  0.64142101
   0.27500206 -0.00356055  0.76809111
   0.29269748  0.02043528  0.72812989
Direct configuration=    19
   0.16664366  0.33336719  0.38741126
   0.16664771  0.83328264  0.38742617
   0.66671916  0.33335867  0.38740264
   0.66666428  0.83333943  0.38742739
  -0.00195787 -0.00055948  0.61186823
  -0.00149421  0.49750013  0.61194734
   0.50090677 -0.00039337  0.61194588
   0.49958147  0.49956355  0.61262808
   0.33360992  0.16711796  0.49989087
   0.33376380  0.66644206  0.49990828
   0.83325037  0.16661224  0.49957011
   0.83257631  0.66634001  0.49988734
   0.16640634  0.33308322  0.47104738
   0.16680425  0.83352532  0.47104985
   0.66664052  0.33302869  0.47103633
   0.66679684  0.83368356  0.47109631
   0.00003311  0.00004275  0.35887067
  -0.00004978  0.49995309  0.35887003
   0.50002960  0.00007923  0.35887453
   0.49999812  0.49993940  0.35887794
   0.33368283  0.16678626  0.58413318
   0.33676949  0.66602536  0.58349867
   0.83212177  0.16493149  0.58376663
   0.82805597  0.66525749  0.58324803
   0.00018758  0.00050673  0.52883453
  -0.00013352  0.49963081  0.52869688
   0.50027886  0.00043447  0.52894488
   0.49934714  0.49905611  0.52856448
   0.33341603  0.16675686  0.41585410
   0.33329354  0.66660370  0.41587097
   0.83334470  0.16676647  0.41591687
   0.83328408  0.66655306  0.41585387
   0.16667041  0.33210050  0.64122369
   0.16108500  0.82522711  0.63757804
   0.66568298  0.33212315  0.64115598
   0.66684330  0.83456920  0.64148338
   0.27493706 -0.00364184  0.76815031
   0.29311839  0.02100680  0.72830486
Direct configuration=    20
   0.16665333  0.33336826  0.38738258
   0.16665041  0.83328769  0.38740132
   0.66671028  0.33335939  0.38737316
   0.66666044  0.83333238  0.38739718
  -0.00193923 -0.00060161  0.61188923
  -0.00148840  0.49752860  0.61196420
   0.50084208 -0.00042973  0.61196921
   0.49956171  0.49952719  0.61264913
   0.33360193  0.16710553  0.49989564
   0.33375818  0.66644035  0.49990911
   0.83325192  0.16661361  0.49956494
   0.83257793  0.66633918  0.49988735
   0.16639936  0.33308113  0.47104417
   0.16680376  0.83352319  0.47105024
   0.66664397  0.33302586  0.47103385
   0.66679699  0.83368609  0.47109443
   0.00002832  0.00004256  0.35885356
  -0.00005019  0.49995074  0.35885228
   0.50003361  0.00007798  0.35885719
   0.49999920  0.49994327  0.35886021
   0.33367924  0.16679135  0.58413850
   0.33677659  0.66598888  0.58350142
   0.83212479  0.16493242  0.58376792
   0.82800321  0.66522462  0.58325002
   0.00018577  0.00051314  0.52882728
  -0.00013768  0.49962036  0.52869598
   0.50028433  0.00043764  0.52893564
   0.49932286  0.49902371  0.52854900
   0.33341717  0.16676082  0.41584376
   0.33329914  0.66660297  0.41586065
   0.83334339  0.16676254  0.41590541
   0.83327804  0.66655327  0.41584366
   0.16662494  0.33208225  0.64123594
   0.16105721  0.82519084  0.63758931
   0.66571299  0.33211350  0.64116908
   0.66685645  0.83459438  0.64150454
   0.27488895 -0.00370294  0.76820626
   0.29334303  0.02130859  0.72836269
Direct configuration=    21
   0.16668232  0.33337149  0.38729655
   0.16665854  0.83330285  0.38732675
   0.66668366  0.33336158  0.38728471
   0.66664893  0.83331123  0.38730657
  -0.00188333 -0.00072800  0.61195225
  -0.00147097  0.49761400  0.61201478
   0.50064803 -0.00053881  0.61203921
   0.49950242  0.49941813  0.61271229