CeO2                                    
           1
     7.707464    0.000000    0.000000
    -3.853732    6.674860    0.000000
     0.000000    0.000000   28.319031
   Ce   O    C    O 
  12  24   1   1
Direct configuration=     1
   0.16666700  0.33333300  0.38888900
   0.16666700  0.83333300  0.38888900
   0.66666700  0.33333300  0.38888900
   0.66666700  0.83333300  0.38888900
   0.00000000  0.00000000  0.61111100
   0.00000000  0.50000000  0.61111100
   0.50000000  0.00000000  0.61111100
   0.50000000  0.50000000  0.61111100
   0.33333300  0.16666700  0.50000000
   0.33333300  0.66666700  0.50000000
   0.83333300  0.16666700  0.50000000
   0.83333300  0.66666700  0.50000000
   0.16666700  0.33333300  0.47222200
   0.16666700  0.83333300  0.47222200
   0.66666700  0.33333300  0.47222200
   0.66666700  0.83333300  0.47222200
   0.00000000  0.00000000  0.36111100
   0.00000000  0.50000000  0.36111100
   0.50000000  0.00000000  0.36111100
   0.50000000  0.50000000  0.36111100
   0.33333300  0.16666700  0.58333300
   0.33333300  0.66666700  0.58333300
   0.83333300  0.16666700  0.58333300
   0.83333300  0.66666700  0.58333300
   0.00000000  0.00000000  0.52777800
   0.00000000  0.50000000  0.52777800
   0.50000000  0.00000000  0.52777800
   0.50000000  0.50000000  0.52777800
   0.33333300  0.16666700  0.41666700
   0.33333300  0.66666700  0.41666700
   0.83333300  0.16666700  0.41666700
   0.83333300  0.66666700  0.41666700
   0.16666700  0.33333300  0.63888900
   0.16666700  0.83333300  0.63888900
   0.66666700  0.33333300  0.63888900
   0.66666700  0.83333300  0.63888900
   0.27777800  0.11111100  0.72389500
   0.42594600  0.11111100  0.72389500
Direct configuration=     2
   0.16666416  0.33333448  0.38861424
   0.16666496  0.83333014  0.38861363
   0.66667018  0.33333446  0.38861394
   0.66666738  0.83333382  0.38861428
  -0.00041558  0.00000743  0.61145963
  -0.00025334  0.49976345  0.61138181
   0.50057638  0.00008834  0.61136757
   0.50024532  0.50035935  0.61128872
   0.33333178  0.16667058  0.49999438
   0.33333189  0.66666505  0.50000551
   0.83333590  0.16666948  0.50001163
   0.83333199  0.66666582  0.50000829
   0.16667069  0.33333482  0.47179531
   0.16667575  0.83333918  0.47179395
   0.66666058  0.33332640  0.47179370
   0.66666109  0.83333375  0.47179577
   0.00000473  0.00000143  0.36090653
  -0.00000207  0.50000042  0.36090730
   0.49999749  0.00000438  0.36090684
   0.49999988  0.49999524  0.36090656
   0.33331724  0.16662835  0.58313810
   0.33333269  0.66670919  0.58311559
   0.83333514  0.16665527  0.58310505
   0.83335860  0.66670478  0.58310993
   0.00001127  0.00001273  0.52819275
   0.00001042  0.49999846  0.52819652
   0.49999471 -0.00000594  0.52820138
   0.49998349  0.49998992  0.52820233
   0.33333499  0.16666705  0.41688601
   0.33332805  0.66666541  0.41688630
   0.83333427  0.16667302  0.41688577
   0.83333545  0.66666308  0.41688413
   0.16696539  0.33367835  0.63900622
   0.16630524  0.83289528  0.63901141
   0.66709611  0.33392191  0.63889157
   0.66656027  0.83320751  0.63904748
   0.27531289  0.11039292  0.72402086
   0.42798862  0.11120668  0.72422901
Direct configuration=     3
   0.16666576  0.33333365  0.38876852
   0.16666611  0.83333175  0.38876825
   0.66666839  0.33333364  0.38876839
   0.66666717  0.83333336  0.38876854
  -0.00018223  0.00000326  0.61126387
  -0.00011108  0.49989628  0.61122975
   0.50025273  0.00003874  0.61122350
   0.50010757  0.50015757  0.61118893
   0.33333246  0.16666857  0.49999754
   0.33333251  0.66666615  0.50000242
   0.83333427  0.16666809  0.50000510
   0.83333256  0.66666648  0.50000364
   0.16666862  0.33333380  0.47203491
   0.16667084  0.83333571  0.47203431
   0.66666418  0.33333011  0.47203420
   0.66666441  0.83333333  0.47203511
   0.00000208  0.00000063  0.36102134
  -0.00000091  0.50000018  0.36102168
   0.49999890  0.00000192  0.36102148
   0.49999995  0.49999791  0.36102136
   0.33332609  0.16665005  0.58324754
   0.33333286  0.66668550  0.58323767
   0.83333394  0.16666186  0.58323305
   0.83334422  0.66668357  0.58323519
   0.00000494  0.00000558  0.52795986
   0.00000457  0.49999933  0.52796151
   0.49999768 -0.00000260  0.52796365
   0.49999276  0.49999558  0.52796406
   0.33333387  0.16666702  0.41676303
   0.33333083  0.66666630  0.41676316
   0.83333356  0.16666964  0.41676293
   0.83333408  0.66666528  0.41676221
   0.16679784  0.33348443  0.63894040
   0.16650838  0.83314107  0.63894267
   0.66685516  0.33359122  0.63889013
   0.66662020  0.83327797  0.63895849
   0.27669710  0.11079613  0.72395019
   0.42684165  0.11115296  0.72404146
Direct configuration=     4
   0.16666492  0.33333398  0.38868902
   0.16666548  0.83333095  0.38868861
   0.66666922  0.33333401  0.38868885
   0.66666724  0.83333356  0.38868908
  -0.00029402  0.00000499  0.61136378
  -0.00018191  0.49983589  0.61130769
   0.50041189  0.00006510  0.61129735
   0.50017731  0.50025822  0.61123821
   0.33332967  0.16666705  0.49999671
   0.33333017  0.66666585  0.50000367
   0.83333648  0.16666905  0.50000701
   0.83333527  0.66666803  0.50000577
   0.16666979  0.33333434  0.47190707
   0.16667309  0.83333735  0.47190618
   0.66666230  0.33332844  0.47190605
   0.66666269  0.83333321  0.47190734
   0.00000300  0.00000091  0.36095669
  -0.00000137  0.50000020  0.36095717
   0.49999832  0.00000277  0.36095690
   0.49999984  0.49999688  0.36095673
   0.33332006  0.16663606  0.58319439
   0.33333579  0.66670158  0.58317693
   0.83333413  0.16665477  0.58317021
   0.83335229  0.66669997  0.58317241
   0.00000711  0.00000914  0.52808509
   0.00000658  0.49999810  0.52808734
   0.49999768 -0.00000388  0.52809115
   0.49998870  0.49999330  0.52809117
   0.33333422  0.16666703  0.41682372
   0.33332976  0.66666585  0.41682385
   0.83333382  0.16667083  0.41682352
   0.83333450  0.66666439  0.41682243
   0.16688566  0.33358551  0.63897886
   0.16639602  0.83300950  0.63898213
   0.66698959  0.33377053  0.63889243
   0.66659125  0.83324458  0.63900944
   0.27669785  0.11056974  0.72398911
   0.42670961  0.11118422  0.72414594
Direct configuration=     5
   0.16666241  0.33333496  0.38845051
   0.16666360  0.83332855  0.38844967
   0.66667169  0.33333511  0.38845024
   0.66666746  0.83333417  0.38845072
  -0.00062939  0.00001020  0.61166351
  -0.00039437  0.49965472  0.61154152
   0.50088937  0.00014421  0.61151891
   0.50038654  0.50056018  0.61138607
   0.33332129  0.16666247  0.49999424
   0.33332315  0.66666497  0.50000745
   0.83334312  0.16667193  0.50001272
   0.83334339  0.66667269  0.50001219
   0.16667331  0.33333597  0.47152357
   0.16667984  0.83334227  0.47152180
   0.66665664  0.33332344  0.47152161
   0.66665755  0.83333284  0.47152406
   0.00000578  0.00000175  0.36076272
  -0.00000274  0.50000026  0.36076362
   0.49999657  0.00000533  0.36076315
   0.49999950  0.49999377  0.36076283
   0.33330198  0.16659410  0.58303493
   0.33334457  0.66674981  0.58299472
   0.83333471  0.16663352  0.58298167
   0.83337648  0.66674919  0.58298407
   0.00001362  0.00001982  0.52846078
   0.00001261  0.49999441  0.52846482
   0.49999770 -0.00000773  0.52847368
   0.49997651  0.49998646  0.52847250
   0.33333528  0.16666705  0.41700580
   0.33332654  0.66666449  0.41700591
   0.83333462  0.16667442  0.41700528
   0.83333578  0.66666172  0.41700309
   0.16714913  0.33388873  0.63909425
   0.16605894  0.83261480  0.63910051
   0.66739287  0.33430844  0.63889936
   0.66650438  0.83314441  0.63916228
   0.27670010  0.10989054  0.72410586
   0.42631348  0.11127803  0.72445938
Direct configuration=     6
   0.16666130  0.33333539  0.38834495
   0.16666276  0.83332749  0.38834392
   0.66667278  0.33333559  0.38834463
   0.66666756  0.83333444  0.38834522
  -0.00077782  0.00001250  0.61179616
  -0.00048840  0.49957455  0.61164500
   0.50110068  0.00017922  0.61161697
   0.50047914  0.50069381  0.61145151
   0.33331757  0.16666045  0.49999315
   0.33332005  0.66666458  0.50000912
   0.83334605  0.16667321  0.50001525
   0.83334698  0.66667475  0.50001502
   0.16667487  0.33333669  0.47135384
   0.16668283  0.83334444  0.47135169
   0.66665413  0.33332123  0.47135147
   0.66665527  0.83333269  0.47135443
   0.00000701  0.00000212  0.36067687
  -0.00000335  0.50000028  0.36067797
   0.49999579  0.00000646  0.36067740
   0.49999935  0.49999240  0.36067702
   0.33329398  0.16657552  0.58296436
   0.33334845  0.66677116  0.58291407
   0.83333497  0.16662411  0.58289823
   0.83338719  0.66677097  0.58290073
   0.00001651  0.00002455  0.52862705
   0.00001528  0.49999278  0.52863188
   0.49999770 -0.00000943  0.52864298
   0.49997112  0.49998343  0.52864126
   0.33333575  0.16666705  0.41708638
   0.33332512  0.66666389  0.41708649
   0.83333498  0.16667600  0.41708573
   0.83333635  0.66666054  0.41708304
   0.16726573  0.33402292  0.63914532
   0.16590976  0.83244012  0.63915290
   0.66757135  0.33454650  0.63890243
   0.66646594  0.83310008  0.63922993
   0.27670109  0.10958995  0.72415753
   0.42613817  0.11131954  0.72459810
Direct configuration=     7
   0.16666135  0.33333564  0.38834822
   0.16666247  0.83332728  0.38834741
   0.66667312  0.33333608  0.38834781
   0.66666769  0.83333431  0.38834873
  -0.00068443  0.00002411  0.61179032
  -0.00043581  0.49965005  0.61163913
   0.50101743  0.00016598  0.61160115
   0.50044131  0.50065425  0.61143181
   0.33330137  0.16664483  0.50000032
   0.33330954  0.66666696  0.50000822
   0.83335547  0.16667319  0.50000576
   0.83336528  0.66668932  0.50001338
   0.16667529  0.33333808  0.47132829
   0.16668374  0.83334403  0.47132609
   0.66665424  0.33332104  0.47132669
   0.66665412  0.83333237  0.47132939
   0.00000651  0.00000225  0.36063722
  -0.00000297  0.50000018  0.36063813
   0.49999614  0.00000603  0.36063775
   0.49999925  0.49999303  0.36063742
   0.33329126  0.16655620  0.58299349
   0.33338470  0.66680992  0.58293389
   0.83332184  0.16658774  0.58292619
   0.83338481  0.66681460  0.58291817
   0.00000570  0.00002797  0.52865549
   0.00000735  0.49998222  0.52865567
   0.50001532 -0.00000433  0.52867088
   0.49997531  0.49998977  0.52866288
   0.33333553  0.16666750  0.41706029
   0.33332577  0.66666380  0.41706040
   0.83333515  0.16667541  0.41705999
   0.83333587  0.66666102  0.41705723
   0.16727486  0.33404183  0.63917584
   0.16587496  0.83240588  0.63918365
   0.66762388  0.33458919  0.63892149
   0.66647346  0.83312547  0.63927033
   0.27666155  0.10944563  0.72418003
   0.42609559  0.11134317  0.72466084
Direct configuration=     8
   0.16666149  0.33333638  0.38835803
   0.16666160  0.83332662  0.38835787
   0.66667414  0.33333755  0.38835736
   0.66666808  0.83333390  0.38835926
  -0.00040427  0.00005891  0.61177281
  -0.00027804  0.49987658  0.61162154
   0.50076765  0.00012626  0.61155368
   0.50032782  0.50053555  0.61137271
   0.33325277  0.16659797  0.50002182
   0.33327801  0.66667411  0.50000551
   0.83338371  0.16667312  0.49997731
   0.83342019  0.66673305  0.50000845
   0.16667654  0.33334226  0.47125162
   0.16668647  0.83334279  0.47124927
   0.66665457  0.33332047  0.47125238
   0.66665068  0.83333144  0.47125427
   0.00000498  0.00000265  0.36051825
  -0.00000184  0.49999988  0.36051861
   0.49999719  0.00000474  0.36051881
   0.49999894  0.49999493  0.36051864
   0.33328307  0.16649824  0.58308087
   0.33349345  0.66692618  0.58299333
   0.83328244  0.16647862  0.58301006
   0.83337764  0.66694548  0.58297052
  -0.00002671  0.00003824  0.52874082
  -0.00001645  0.49995056  0.52872703
   0.50006819  0.00001097  0.52875460
   0.49998789  0.50000879  0.52872774
   0.33333486  0.16666884  0.41698200
   0.33332774  0.66666353  0.41698212
   0.83333568  0.16667361  0.41698277
   0.83333442  0.66666247  0.41697979
   0.16730226  0.33409856  0.63926742
   0.16577058  0.83230317  0.63927590
   0.66778147  0.33471724  0.63897869
   0.66649602  0.83320163  0.63939154
   0.27654293  0.10901268  0.72424753
   0.42596785  0.11141404  0.72484904
Direct configuration=     9
   0.16666178  0.33333786  0.38837765
   0.16665987  0.83332531  0.38837878
   0.66667617  0.33334047  0.38837646
   0.66666886  0.83333310  0.38838033
   0.00015604  0.00012853  0.61173780
   0.00003750  0.50032963  0.61158636
   0.50026811  0.00004681  0.61145874
   0.50010085  0.50029817  0.61125453
   0.33315556  0.16650426  0.50006483
   0.33321495  0.66668840  0.50000011
   0.83344019  0.16667297  0.49992040
   0.83352999  0.66682051  0.49999858
   0.16667904  0.33335060  0.47109828
   0.16669194  0.83334031  0.47109565
   0.66665522  0.33331933  0.47110374
   0.66664379  0.83332958  0.47110404
   0.00000193  0.00000345  0.36028032
   0.00000042  0.49999928  0.36027956
   0.49999930  0.00000216  0.36028092
   0.49999832  0.49999874  0.36028106
   0.33326671  0.16638232  0.58325564
   0.33371096  0.66715870  0.58311221
   0.83320366  0.16626039  0.58317781
   0.83336332  0.66720723  0.58307520
  -0.00009154  0.00005878  0.52891148
  -0.00006405  0.49988723  0.52886977
   0.50017391  0.00004157  0.52892204
   0.50001305  0.50004682  0.52885745
   0.33333352  0.16667151  0.41682541
   0.33333167  0.66666300  0.41682556
   0.83333674  0.16667002  0.41682834
   0.83333153  0.66666536  0.41682493
   0.16735706  0.33421201  0.63945059
   0.16556180  0.83209773  0.63946040
   0.66809664  0.33497336  0.63909307
   0.66654112  0.83335396  0.63963397
   0.27630569  0.10814676  0.72438254
   0.42571236  0.11155578  0.72522546
Direct configuration=    10
   0.16666167  0.33333727  0.38836987
   0.16666055  0.83332583  0.38837049
   0.66667536  0.33333931  0.38836889
   0.66666855  0.83333342  0.38837198
  -0.00006611  0.00010093  0.61175168
  -0.00008761  0.50015000  0.61160031
   0.50046617  0.00007831  0.61149638
   0.50019084  0.50039229  0.61130139
   0.33319410  0.16654142  0.50004778
   0.33323995  0.66668273  0.50000225
   0.83341780  0.16667303  0.49994296
   0.83348646  0.66678583  0.50000249
   0.16667804  0.33334729  0.47115907
   0.16668977  0.83334129  0.47115656
   0.66665496  0.33331978  0.47116268
   0.66664652  0.83333032  0.47116360
   0.00000314  0.00000313  0.36037466
  -0.00000048  0.49999952  0.36037434
   0.49999847  0.00000318  0.36037524
   0.49999857  0.49999723  0.36037526
   0.33327320  0.16642828  0.58318635
   0.33362472  0.66706651  0.58306507
   0.83323490  0.16634691  0.58311130
   0.83336900  0.66710345  0.58303369
  -0.00006583  0.00005064  0.52884382
  -0.00004517  0.49991234  0.52881318
   0.50013199  0.00002944  0.52885565
   0.50000307  0.50003174  0.52880602
   0.33333405  0.16667045  0.41688750
   0.33333011  0.66666321  0.41688763
   0.83333632  0.16667144  0.41688957
   0.83333268  0.66666421  0.41688633
   0.16733533  0.33416703  0.63937797
   0.16564458  0.83217918  0.63938725
   0.66797168  0.33487181  0.63904772
   0.66652324  0.83329357  0.63953785
   0.27639975  0.10849008  0.72432901
   0.42581365  0.11149958  0.72507621
Direct configuration=    11
   0.16666431  0.33333756  0.38836131
   0.16666129  0.83332733  0.38836181
   0.66667302  0.33333961  0.38836087
   0.66666762  0.83333157  0.38836372
  -0.00000416  0.00011081  0.61175801
  -0.00004937  0.50020575  0.61160427
   0.50041678  0.00006960  0.61149261
   0.50016969  0.50037513  0.61129650
   0.33318061  0.16652805  0.50005239
   0.33323084  0.66668497  0.50000048
   0.83342624  0.16667346  0.49993726
   0.83350208  0.66679855  0.50000125
   0.16668025  0.33334804  0.47114484
   0.16669226  0.83334324  0.47114282
   0.66665235  0.33331842  0.47114915
   0.66664477  0.83332955  0.47114939
   0.00000239  0.00000315  0.36033783
  -0.00000008  0.49999936  0.36033737
   0.49999887  0.00000255  0.36033843
   0.49999846  0.49999803  0.36033845
   0.33326893  0.16640681  0.58321281
   0.33365778  0.66710530  0.58308193
   0.83322565  0.16631408  0.58313666
   0.83337030  0.66714991  0.58304823
  -0.00006659  0.00005789  0.52885942
  -0.00004954  0.49990579  0.52882506
   0.50014282  0.00003538  0.52887039
   0.50000158  0.50003119  0.52881494
   0.33333288  0.16667002  0.41686299
   0.33333006  0.66666317  0.41686253
   0.83333697  0.16667088  0.41686420
   0.83333322  0.66666535  0.41686131
   0.16734869  0.33418761  0.63940575
   0.16561633  0.83214995  0.63941716
   0.66801667  0.33491090  0.63906492
   0.66652824  0.83331626  0.63957488
   0.27614170  0.10832951  0.72435306
   0.42598009  0.11152726  0.72514501
Direct configuration=    12
   0.16666614  0.33333776  0.38835536
   0.16666179  0.83332837  0.38835578
   0.66667139  0.33333982  0.38835530
   0.66666698  0.83333028  0.38835797
   0.00003891  0.00011767  0.61176241
  -0.00002279  0.50024449  0.61160701
   0.50038244  0.00006355  0.61149000
   0.50015500  0.50036321  0.61129311
   0.33317122  0.16651876  0.50005560
   0.33322451  0.66668652  0.49999924
   0.83343211  0.16667376  0.49993329
   0.83351294  0.66680739  0.50000039
   0.16668178  0.33334856  0.47113495
   0.16669400  0.83334459  0.47113328
   0.66665053  0.33331747  0.47113975
   0.66664355  0.83332902  0.47113952
   0.00000187  0.00000315  0.36031224
   0.00000019  0.49999925  0.36031166
   0.49999914  0.00000212  0.36031284
   0.49999839  0.49999859  0.36031286
   0.33326596  0.16639189  0.58323121
   0.33368077  0.66713227  0.58309365
   0.83321922  0.16629127  0.58315428
   0.83337120  0.66718221  0.58305834
  -0.00006711  0.00006293  0.52887026
  -0.00005257  0.49990123  0.52883332
   0.50015034  0.00003951  0.52888063
   0.50000054  0.50003080  0.52882113
   0.33333206  0.16666971  0.41684596
   0.33333003  0.66666313  0.41684508
   0.83333741  0.16667049  0.41684657
   0.83333359  0.66666614  0.41684391
   0.16735798  0.33420191  0.63942506
   0.16559670  0.83212964  0.63943795
   0.66804795  0.33493808  0.63907687
   0.66653172  0.83333204  0.63960062
   0.27596233  0.10821791  0.72436977
   0.42609578  0.11154649  0.72519283
Direct configuration=    13
   0.16666982  0.33333817  0.38834346
   0.16666281  0.83333045  0.38834372
   0.66666814  0.33334023  0.38834415
   0.66666569  0.83332770  0.38834649
   0.00012504  0.00013140  0.61177121
   0.00003036  0.50032198  0.61161251
   0.50031378  0.00005145  0.61148476
   0.50012560  0.50033936  0.61128632
   0.33315246  0.16650019  0.50006202
   0.33321185  0.66668963  0.49999677
   0.83344385  0.16667435  0.49992536
   0.83353467  0.66682508  0.49999867
   0.16668484  0.33334960  0.47111516
   0.16669746  0.83334730  0.47111418
   0.66664690  0.33331558  0.47112095
   0.66664111  0.83332795  0.47111976
   0.00000082  0.00000317  0.36026105
   0.00000074  0.49999904  0.36026026
   0.49999970  0.00000125  0.36026166
   0.49999825  0.49999971  0.36026169
   0.33326003  0.16636204  0.58326800
   0.33372673  0.66718620  0.58311709
   0.83320636  0.16624563  0.58318953
   0.83337301  0.66724680  0.58307855
  -0.00006816  0.00007302  0.52889194
  -0.00005864  0.49989212  0.52884983
   0.50016539  0.00004778  0.52890112
   0.49999846  0.50003003  0.52883352
   0.33333042  0.16666911  0.41681190
   0.33332996  0.66666307  0.41681017
   0.83333831  0.16666972  0.41681130
   0.83333434  0.66666772  0.41680913
   0.16737656  0.33423051  0.63946368
   0.16555744  0.83208900  0.63947953
   0.66811049  0.33499242  0.63910078
   0.66653867  0.83336359  0.63965210
   0.27560359  0.10799469  0.72440320
   0.42632716  0.11158496  0.72528847
Direct configuration=    14
   0.16666821  0.33333799  0.38834868
   0.16666237  0.83332953  0.38834901
   0.66666957  0.33334005  0.38834904
   0.66666625  0.83332883  0.38835153
   0.00008726  0.00012538  0.61176735
   0.00000705  0.50028799  0.61161010
   0.50034390  0.00005676  0.61148706
   0.50013849  0.50034982  0.61128930
   0.33316069  0.16650834  0.50005920
   0.33321740  0.66668826  0.49999785
   0.83343871  0.16667409  0.49992884
   0.83352514  0.66681732  0.49999943
   0.16668350  0.33334914  0.47112384
   0.16669594  0.83334611  0.47112256
   0.66664849  0.33331641  0.47112919
   0.66664218  0.83332842  0.47112843
   0.00000128  0.00000316  0.36028350
   0.00000050  0.49999913  0.36028281
   0.49999945  0.00000163  0.36028411
   0.49999832  0.49999922  0.36028414
   0.33326264  0.16637513  0.58325186
   0.33370657  0.66716254  0.58310681
   0.83321200  0.16626565  0.58317407
   0.83337221  0.66721847  0.58306968
  -0.00006770  0.00006860  0.52888243
  -0.00005598  0.49989612  0.52884259
   0.50015879  0.00004415  0.52889213
   0.49999937  0.50003037  0.52882808
   0.33333114  0.16666937  0.41682684
   0.33332999  0.66666310  0.41682548
   0.83333791  0.16667006  0.41682677
   0.83333401  0.66666702  0.41682439
   0.16736841  0.33421797  0.63944674
   0.16557466  0.83210683  0.63946129
   0.66808306  0.33496858  0.63909029
   0.66653562  0.83334975  0.63962952
   0.27576093  0.10809259  0.72438854
   0.42622568  0.11156809  0.72524652
Direct configuration=    15
   0.16667303  0.33333810  0.38832483
   0.16666412  0.83333272  0.38832464
   0.66666471  0.33333990  0.38832648
   0.66666443  0.83332564  0.38832800
   0.00008365  0.00012964  0.61178974
   0.00001096  0.50029705  0.61162754
   0.50036040  0.00005894  0.61150319
   0.50014894  0.50037025  0.61130741
   0.33315636  0.16650365  0.50005847
   0.33321464  0.66668961  0.49999507
   0.83344250  0.16667440  0.49993007
   0.83353033  0.66682305  0.49999891
   0.16668730  0.33334893  0.47112473
   0.16670001  0.83335065  0.47112446
   0.66664315  0.33331379  0.47113057
   0.66664015  0.83332743  0.47112878
   0.00000038  0.00000300  0.36025549
   0.00000083  0.49999897  0.36025472
   0.49999986  0.00000088  0.36025613
   0.49999828  0.50000010  0.36025607
   0.33325693  0.16635478  0.58326966
   0.33372933  0.66719434  0.58311594
   0.83321007  0.16624360  0.58319047
   0.83337849  0.66726082  0.58307681
  -0.00005502  0.00007991  0.52888028
  -0.00005481  0.49989592  0.52883879
   0.50015908  0.00005035  0.52888879
   0.49999061  0.50002092  0.52882098
   0.33332890  0.16666772  0.41680937
   0.33332907  0.66666326  0.41680676
   0.83333903  0.16666957  0.41680710
   0.83333592  0.66666894  0.41680547
   0.16738742  0.33423868  0.63946682
   0.16555785  0.83208792  0.63948549
   0.66811307  0.33500005  0.63910169
   0.66653556  0.83336404  0.63965627
   0.27567207  0.10794115  0.72441142
   0.42622641  0.11159333  0.72531262
Direct configuration=    16
   0.16668750  0.33333844  0.38825329
   0.16666939  0.83334228  0.38825152
   0.66665016  0.33333945  0.38825880
   0.66665897  0.83331605  0.38825741
   0.00007283  0.00014241  0.61185690
   0.00002267  0.50032422  0.61167987
   0.50040990  0.00006549  0.61155159
   0.50018030  0.50043152  0.61136174
   0.33314337  0.16648961  0.50005627
   0.33320636  0.66669365  0.49998672
   0.83345389  0.16667532  0.49993374
   0.83354589  0.66684025  0.49999738
   0.16669872  0.33334831  0.47112739
   0.16671221  0.83336426  0.47113017
   0.66662712  0.33330593  0.47113472
   0.66663407  0.83332445  0.47112983
  -0.00000232  0.00000249  0.36017146
   0.00000181  0.49999847  0.36017047
   0.50000106 -0.00000136  0.36017219
   0.49999819  0.50000273  0.36017187
   0.33323983  0.16629372  0.58332304
   0.33379760  0.66728972  0.58314331
   0.83320428  0.16617746  0.58323967
   0.83339731  0.66738787  0.58309820
  -0.00001699  0.00011386  0.52887383
  -0.00005131  0.49989533  0.52882738
   0.50015995  0.00006895  0.52887874
   0.49996431  0.49999257  0.52879969
   0.33332220  0.16666275  0.41675695
   0.33332631  0.66666374  0.41675059
   0.83334238  0.16666812  0.41674807
   0.83334163  0.66667470  0.41674871
   0.16744442  0.33430082  0.63952705
   0.16550742  0.83203121  0.63955806
   0.66820309  0.33509444  0.63913587
   0.66653538  0.83340689  0.63973654
   0.27540547  0.10748683  0.72448005
   0.42622861  0.11166906  0.72551091
Direct configuration=    17
   0.16671645  0.33333911  0.38811022
   0.16667993  0.83336139  0.38810529
   0.66662104  0.33333854  0.38812343
   0.66664805  0.83329689  0.38811624
   0.00005117  0.00016796  0.61199122
   0.00004611  0.50037855  0.61178452
   0.50050891  0.00007859  0.61164838
   0.50024302  0.50055406  0.61147041
   0.33311738  0.16646152  0.50005186
   0.33318979  0.66670174  0.49997002
   0.83347667  0.16667716  0.49994110
   0.83357702  0.66687464  0.49999431
   0.16672155  0.33334706  0.47113272
   0.16673661  0.83339149  0.47114159
   0.66659506  0.33329020  0.47114301
   0.66662192  0.83331850  0.47113192
  -0.00000771  0.00000149  0.36000340
   0.00000378  0.49999748  0.36000198
   0.50000348 -0.00000585  0.36000431
   0.49999800  0.50000799  0.36000346
   0.33320562  0.16617160  0.58342981
   0.33393415  0.66748048  0.58319807
   0.83319271  0.16604517  0.58333806
   0.83343495  0.66764197  0.58314096
   0.00005908  0.00018175  0.52886094
  -0.00004430  0.49989416  0.52880456
   0.50016168  0.00010615  0.52885866
   0.49991173  0.49993586  0.52875709
   0.33330879  0.16665282  0.41665212
   0.33332079  0.66666470  0.41663825
   0.83334907  0.16666522  0.41663003
   0.83335307  0.66668621  0.41663520
   0.16755844  0.33442509  0.63964751
   0.16540655  0.83191779  0.63970320
   0.66838314  0.33528323  0.63920424
   0.66653503  0.83349260  0.63989708
   0.27487228  0.10657819  0.72461732
   0.42623300  0.11182051  0.72590750
Direct configuration=    18
   0.16677435  0.33334045  0.38782406
   0.16670101  0.83339961  0.38781282
   0.66656281  0.33333674  0.38785270
   0.66662621  0.83325856  0.38783389
   0.00000787  0.00021904  0.61225987
   0.00009298  0.50048723  0.61199384
   0.50070692  0.00010479  0.61184197
   0.50036845  0.50079915  0.61168775
   0.33306541  0.16640534  0.50004304
   0.33315665  0.66671790  0.49993661
   0.83352223  0.16668084  0.49995581
   0.83363928  0.66694341  0.49998818
   0.16676721  0.33334457  0.47114338
   0.16678541  0.83344593  0.47116444
   0.66653095  0.33325874  0.47115958
   0.66659760  0.83330660  0.47113612
  -0.00001850 -0.00000052  0.35966729
   0.00000771  0.49999550  0.35966498
   0.50000831 -0.00001482  0.35966856
   0.49999761  0.50001852  0.35966664
   0.33313721  0.16592737  0.58364334
   0.33420724  0.66786200  0.58330758
   0.83316955  0.16578060  0.58353486
   0.83351022  0.66815016  0.58322650
   0.00021123  0.00031753  0.52883516
  -0.00003029  0.49989180  0.52875892
   0.50016515  0.00018055  0.52881850
   0.49980655  0.49982244  0.52867189
   0.33328198  0.16663296  0.41644244
   0.33330975  0.66666661  0.41641358
   0.83336246  0.16665942  0.41639393
   0.83337593  0.66670924  0.41640817
   0.16778646  0.33467364  0.63988844
   0.16520483  0.83169095  0.63999350
   0.66874323  0.33566080  0.63934098
   0.66653433  0.83366401  0.64021814
   0.27380591  0.10476091  0.72489186
   0.42624179  0.11212340  0.72670067
Direct configuration=    19
   0.16689014  0.33334312  0.38725176
   0.16674316  0.83347606  0.38722788
   0.66644635  0.33333314  0.38731123
   0.66658254  0.83318189  0.38726920
  -0.00007874  0.00032122  0.61279716
   0.00018671  0.50070457  0.61241246
   0.50110295  0.00015720  0.61222916
   0.50061930  0.50128932  0.61212241
   0.33296146  0.16629298  0.50002541
   0.33309038  0.66675023  0.49986980
   0.83361334  0.16668820  0.49998523
   0.83376380  0.66708097  0.49997591
   0.16685853  0.33333959  0.47116470
   0.16688300  0.83355482  0.47121013
   0.66640273  0.33319583  0.47119274
   0.66654898  0.83328279  0.47114452
  -0.00004009 -0.00000455  0.35899505
   0.00001557  0.49999155  0.35899100
   0.50001797 -0.00003276  0.35899705
   0.49999684  0.50003957  0.35899301
   0.33300038  0.16543891  0.58407040
   0.33475343  0.66862505  0.58352661
   0.83312324  0.16525147  0.58392844
   0.83366078  0.66916656  0.58339758
   0.00051551  0.00058910  0.52878360
  -0.00000227  0.49988710  0.52866765
   0.50017209  0.00032935  0.52873818
   0.49959621  0.49959561  0.52850149
   0.33322835  0.16659323  0.41602310
   0.33328767  0.66667044  0.41596424
   0.83338925  0.16664781  0.41592174
   0.83342165  0.66675530  0.41595412
   0.16824251  0.33517074  0.64037029
   0.16480138  0.83123726  0.64057408
   0.66946343  0.33641594  0.63961445
   0.66653292  0.83400683  0.64086028
   0.27167315  0.10112634  0.72544095
   0.42625937  0.11272920  0.72828700
Direct configuration=    20
   0.16688199  0.33333868  0.38718874
   0.16674144  0.83347572  0.38716174
   0.66645084  0.33333056  0.38725264
   0.66658755  0.83318940  0.38720674
  -0.00008539  0.00033876  0.61285506
   0.00019852  0.50072931  0.61245290
   0.50115394  0.00017146  0.61227019
   0.50065145  0.50134675  0.61216368
   0.33296585  0.16629997  0.50001988
   0.33310322  0.66675442  0.49985502
   0.83361651  0.16668319  0.49998064
   0.83375452  0.66709094  0.49996618
   0.16685692  0.33333935  0.47115686
   0.16688731  0.83355941  0.47120525
   0.66640226  0.33319313  0.47118702
   0.66655120  0.83328791  0.47113785
  -0.00003741 -0.00000545  0.35891039
   0.00001814  0.49999512  0.35890725
   0.50001367 -0.00003480  0.35891313
   0.49999548  0.50003887  0.35890867
   0.33299485  0.16540395  0.58412393
   0.33480955  0.66869692  0.58355704
   0.83313288  0.16521452  0.58397422
   0.83367149  0.66926907  0.58342406
   0.00055299  0.00063180  0.52878116
  -0.00000316  0.49988214  0.52866912
   0.50018594  0.00035560  0.52873439
   0.49957063  0.49956791  0.52849641
   0.33322187  0.16658737  0.41596795
   0.33328390  0.66667174  0.41590729
   0.83339259  0.16664757  0.41586498
   0.83342884  0.66676107  0.41589761
   0.16830814  0.33525436  0.64042941
   0.16476124  0.83117523  0.64064875
   0.66954588  0.33651412  0.63965355
   0.66652175  0.83402563  0.64094087
   0.27177251  0.10065743  0.72552229
   0.42586408  0.11278286  0.72849712
Direct configuration=    21
   0.16687820  0.33333661  0.38715943
   0.16674064  0.83347556  0.38713097
   0.66645292  0.33332937  0.38722539
   0.66658988  0.83319289  0.38717769
  -0.00008848  0.00034691  0.61288200
   0.00020401  0.50074082  0.61247171
   0.50117765  0.00017810  0.61228927
   0.50066640  0.50137346  0.61218288