CeO2                                    
           1
     7.707464    0.000000    0.000000
    -3.853732    6.674860    0.000000
     0.000000    0.000000   28.319031
   Ce   O    C    O 
  12  24   1   1
Direct configuration=     1
   0.16666700  0.33333300  0.38888900
   0.16666700  0.83333300  0.38888900
   0.66666700  0.33333300  0.38888900
   0.66666700  0.83333300  0.38888900
   0.00000000  0.00000000  0.61111100
   0.00000000  0.50000000  0.61111100
   0.50000000  0.00000000  0.61111100
   0.50000000  0.50000000  0.61111100
   0.33333300  0.16666700  0.50000000
   0.33333300  0.66666700  0.50000000
   0.83333300  0.16666700  0.50000000
   0.83333300  0.66666700  0.50000000
   0.16666700  0.33333300  0.47222200
   0.16666700  0.83333300  0.47222200
   0.66666700  0.33333300  0.47222200
   0.66666700  0.83333300  0.47222200
   0.00000000  0.00000000  0.36111100
   0.00000000  0.50000000  0.36111100
   0.50000000  0.00000000  0.36111100
   0.50000000  0.50000000  0.36111100
   0.33333300  0.16666700  0.58333300
   0.33333300  0.66666700  0.58333300
   0.83333300  0.16666700  0.58333300
   0.83333300  0.66666700  0.58333300
   0.00000000  0.00000000  0.52777800
   0.00000000  0.50000000  0.52777800
   0.50000000  0.00000000  0.52777800
   0.50000000  0.50000000  0.52777800
   0.33333300  0.16666700  0.41666700
   0.33333300  0.66666700  0.41666700
   0.83333300  0.16666700  0.41666700
   0.83333300  0.66666700  0.41666700
   0.16666700  0.33333300  0.63888900
   0.16666700  0.83333300  0.63888900
   0.66666700  0.33333300  0.63888900
   0.66666700  0.83333300  0.63888900
   0.50000000  0.38888900  0.72389500
   0.50000000  0.38888900  0.76422100
Direct configuration=     2
   0.16667171  0.33333997  0.38861547
   0.16666639  0.83332877  0.38861450
   0.66666729  0.33333666  0.38861493
   0.66666162  0.83332683  0.38861533
  -0.00000321  0.00011708  0.61131223
  -0.00014451  0.49973781  0.61130151
   0.50017019  0.00011669  0.61127431
   0.49984667  0.49943470  0.61184675
   0.33336014  0.16671860  0.50000811
   0.33335457  0.66663547  0.50001141
   0.83333612  0.16667385  0.50000502
   0.83327966  0.66663383  0.50001098
   0.16665512  0.33333533  0.47178925
   0.16666219  0.83332271  0.47179060
   0.66667989  0.33333442  0.47178815
   0.66666971  0.83334112  0.47179072
   0.00000028 -0.00000106  0.36090095
  -0.00000013  0.50000119  0.36090137
   0.49999914 -0.00000002  0.36090109
   0.50000081  0.50000019  0.36090136
   0.33328004  0.16657087  0.58311595
   0.33330447  0.66675697  0.58311774
   0.83333130  0.16657322  0.58311530
   0.83342974  0.66676786  0.58311897
  -0.00001260 -0.00000661  0.52820992
   0.00000884  0.50000622  0.52820171
   0.50000167 -0.00001358  0.52821004
   0.50000445  0.50002333  0.52815360
   0.33333471  0.16666727  0.41687745
   0.33333249  0.66666677  0.41688015
   0.83333275  0.16666818  0.41687938
   0.83333347  0.66666561  0.41687979
   0.16592184  0.33306801  0.63905355
   0.16670902  0.83343337  0.63918697
   0.66830030  0.33261642  0.63870691
   0.66681732  0.83362733  0.63913708
   0.49844091  0.39083806  0.72367029
   0.50059561  0.38811456  0.76460713
Direct configuration=     3
   0.16667232  0.33334086  0.38858029
   0.16666631  0.83332822  0.38857920
   0.66666733  0.33333713  0.38857967
   0.66666092  0.83332603  0.38858013
  -0.00000362  0.00013214  0.61133812
  -0.00016309  0.49970409  0.61132602
   0.50019208  0.00013170  0.61129531
   0.49982695  0.49936199  0.61194139
   0.33336363  0.16672524  0.50000915
   0.33335735  0.66663141  0.50001288
   0.83333652  0.16667473  0.50000567
   0.83327280  0.66662956  0.50001240
   0.16665359  0.33333563  0.47173359
   0.16666157  0.83332138  0.47173511
   0.66668155  0.33333460  0.47173235
   0.66667006  0.83334216  0.47173525
   0.00000032 -0.00000120  0.36087393
  -0.00000015  0.50000134  0.36087440
   0.49999903 -0.00000002  0.36087409
   0.50000091  0.50000022  0.36087440
   0.33327323  0.16655850  0.58308803
   0.33330080  0.66676854  0.58309005
   0.83333108  0.16656116  0.58308730
   0.83344219  0.66678083  0.58309144
  -0.00001422 -0.00000746  0.52826548
   0.00000998  0.50000702  0.52825621
   0.50000189 -0.00001532  0.52826562
   0.50000502  0.50002633  0.52820191
   0.33333493  0.16666730  0.41690452
   0.33333242  0.66666675  0.41690757
   0.83333271  0.16666833  0.41690669
   0.83333353  0.66666544  0.41690716
   0.16582599  0.33303393  0.63907472
   0.16671442  0.83344628  0.63922530
   0.66851039  0.33252426  0.63868349
   0.66683666  0.83366519  0.63916899
   0.49824037  0.39108876  0.72364139
   0.50067222  0.38801495  0.76465679
Direct configuration=     4
   0.16667307  0.33334191  0.38853434
   0.16666613  0.83332754  0.38853315
   0.66666740  0.33333777  0.38853362
   0.66666015  0.83332501  0.38853422
  -0.00000794  0.00014227  0.61137093
  -0.00017529  0.49967058  0.61135542
   0.50021443  0.00013452  0.61132052
   0.49980163  0.49927208  0.61206564
   0.33337049  0.16673919  0.50000955
   0.33336341  0.66662305  0.50001498
   0.83333758  0.16667587  0.50000524
   0.83325865  0.66662149  0.50001432
   0.16665011  0.33333452  0.47165654
   0.16666119  0.83332057  0.47165849
   0.66668377  0.33333338  0.47165518
   0.66667153  0.83334545  0.47165838
   0.00000035 -0.00000134  0.36083332
  -0.00000016  0.50000146  0.36083383
   0.49999894 -0.00000003  0.36083349
   0.50000102  0.50000021  0.36083383
   0.33326882  0.16655053  0.58305602
   0.33330099  0.66677943  0.58305765
   0.83333301  0.16653913  0.58305095
   0.83345063  0.66679515  0.58305949
  -0.00001512 -0.00000721  0.52834248
   0.00001027  0.50000625  0.52833162
   0.50000289 -0.00001581  0.52834255
   0.50000492  0.50002786  0.52827186
   0.33333527  0.16666749  0.41693771
   0.33333243  0.66666657  0.41694103
   0.83333272  0.16666852  0.41694018
   0.83333344  0.66666509  0.41694059
   0.16569797  0.33298647  0.63910787
   0.16672304  0.83346774  0.63928175
   0.66879947  0.33239587  0.63865547
   0.66686035  0.83370953  0.63921727
   0.49795412  0.39145711  0.72370796
   0.50077833  0.38787280  0.76461854
Direct configuration=     5
   0.16667534  0.33334506  0.38839649
   0.16666559  0.83332548  0.38839502
   0.66666762  0.33333971  0.38839544
   0.66665783  0.83332194  0.38839648
  -0.00002091  0.00017265  0.61146938
  -0.00021189  0.49957004  0.61144365
   0.50028148  0.00014300  0.61139613
   0.49972569  0.49900233  0.61243839
   0.33339104  0.16678103  0.50001072
   0.33338160  0.66659796  0.50002129
   0.83334075  0.16667927  0.50000396
   0.83321618  0.66659728  0.50002009
   0.16663967  0.33333121  0.47142540
   0.16666007  0.83331815  0.47142863
   0.66669043  0.33332974  0.47142367
   0.66667594  0.83335530  0.47142778
   0.00000047 -0.00000178  0.36071147
  -0.00000021  0.50000180  0.36071211
   0.49999867 -0.00000007  0.36071167
   0.50000133  0.50000021  0.36071215
   0.33325558  0.16652659  0.58295996
   0.33330158  0.66681209  0.58296045
   0.83333877  0.16647305  0.58294191
   0.83347594  0.66683809  0.58296364
  -0.00001784 -0.00000648  0.52857347
   0.00001113  0.50000395  0.52855787
   0.50000591 -0.00001727  0.52857335
   0.50000464  0.50003244  0.52848170
   0.33333630  0.16666804  0.41703731
   0.33333243  0.66666603  0.41704143
   0.83333273  0.16666909  0.41704065
   0.83333318  0.66666407  0.41704089
   0.16531389  0.33284409  0.63920734
   0.16674890  0.83353213  0.63945111
   0.66966671  0.33201073  0.63857139
   0.66693144  0.83384254  0.63936213
   0.49709535  0.39256215  0.72390769
   0.50109667  0.38744636  0.76450379
Direct configuration=     6
   0.16667986  0.33335135  0.38812078
   0.16666451  0.83332136  0.38811876
   0.66666804  0.33334358  0.38811910
   0.66665320  0.83331581  0.38812099
  -0.00004685  0.00023341  0.61166628
  -0.00028509  0.49936897  0.61162010
   0.50041559  0.00015996  0.61154735
   0.49957380  0.49846284  0.61318390
   0.33343215  0.16686472  0.50001308
   0.33341799  0.66654779  0.50003392
   0.83334709  0.16668609  0.50000138
   0.83313124  0.66654885  0.50003164
   0.16661880  0.33332459  0.47096312
   0.16665781  0.83331329  0.47096890
   0.66670375  0.33332244  0.47096067
   0.66668477  0.83337502  0.47096658
   0.00000070 -0.00000266  0.36046779
  -0.00000030  0.50000247  0.36046868
   0.49999812 -0.00000015  0.36046803
   0.50000195  0.50000019  0.36046878
   0.33322910  0.16647872  0.58276785
   0.33330276  0.66687742  0.58276605
   0.83335031  0.16634089  0.58272383
   0.83352657  0.66692398  0.58277193
  -0.00002328 -0.00000500  0.52903547
   0.00001287  0.49999936  0.52901035
   0.50001194 -0.00002019  0.52903495
   0.50000407  0.50004161  0.52890139
   0.33333835  0.16666914  0.41723650
   0.33333245  0.66666495  0.41724224
   0.83333274  0.16667024  0.41724159
   0.83333266  0.66666201  0.41724148
   0.16454574  0.33255932  0.63940627
   0.16680062  0.83366091  0.63978982
   0.67140119  0.33124044  0.63840322
   0.66707361  0.83410856  0.63965183
   0.49537782  0.39477223  0.72430713
   0.50173336  0.38659348  0.76427427
Direct configuration=     7
   0.16667771  0.33334836  0.38825170
   0.16666502  0.83332331  0.38824994
   0.66666784  0.33334174  0.38825032
   0.66665540  0.83331872  0.38825181
  -0.00003453  0.00020456  0.61157278
  -0.00025033  0.49946445  0.61153631
   0.50035191  0.00015191  0.61147554
   0.49964593  0.49871902  0.61282989
   0.33341263  0.16682498  0.50001196
   0.33340071  0.66657161  0.50002792
   0.83334408  0.16668285  0.50000260
   0.83317157  0.66657185  0.50002616
   0.16662871  0.33332773  0.47118263
   0.16665888  0.83331560  0.47118720
   0.66669743  0.33332591  0.47118053
   0.66668058  0.83336566  0.47118558
   0.00000059 -0.00000225  0.36058350
  -0.00000025  0.50000215  0.36058428
   0.49999838 -0.00000011  0.36058372
   0.50000165  0.50000020  0.36058434
   0.33324168  0.16650145  0.58285908
   0.33330220  0.66684640  0.58285836
   0.83334483  0.16640365  0.58282739
   0.83350253  0.66688319  0.58286297
  -0.00002070 -0.00000570  0.52881609
   0.00001204  0.50000154  0.52879549
   0.50000907 -0.00001881  0.52881576
   0.50000434  0.50003726  0.52870210
   0.33333738  0.16666862  0.41714191
   0.33333244  0.66666546  0.41714689
   0.83333273  0.16666969  0.41714617
   0.83333291  0.66666299  0.41714623
   0.16491050  0.33269454  0.63931180
   0.16677606  0.83359976  0.63962898
   0.67057757  0.33160622  0.63848308
   0.66700610  0.83398224  0.63951426
   0.49619340  0.39372276  0.72411745
   0.50143102  0.38699848  0.76438326
Direct configuration=     8
   0.16667755  0.33334835  0.38825372
   0.16666466  0.83332312  0.38825295
   0.66666810  0.33334207  0.38825234
   0.66665561  0.83331871  0.38825410
  -0.00005019  0.00016458  0.61156698
  -0.00019754  0.49950959  0.61152407
   0.50032669  0.00008251  0.61146522
   0.49964984  0.49874099  0.61282627
   0.33342148  0.16684668  0.50000869
   0.33341110  0.66655933  0.50002907
   0.83334645  0.16668204  0.49999825
   0.83315023  0.66656256  0.50002714
   0.16662329  0.33332269  0.47117173
   0.16666049  0.83331880  0.47117723
   0.66669778  0.33332079  0.47116978
   0.66668405  0.83337267  0.47117456
   0.00000053 -0.00000192  0.36056345
  -0.00000032  0.50000187  0.36056413
   0.49999863  0.00000007  0.36056363
   0.50000151  0.50000015  0.36056417
   0.33326118  0.16653879  0.58288274
   0.33332566  0.66682739  0.58287842
   0.83335559  0.16637298  0.58283108
   0.83346715  0.66687267  0.58288417
  -0.00001549 -0.00000116  0.52882633
   0.00000832  0.49999550  0.52880463
   0.50001089 -0.00001312  0.52882546
   0.50000074  0.50002832  0.52872383
   0.33333783  0.16666967  0.41712789
   0.33333279  0.66666484  0.41713234
   0.83333287  0.16666996  0.41713197
   0.83333192  0.66666242  0.41713174
   0.16491250  0.33268704  0.63933375
   0.16678205  0.83361836  0.63965276
   0.67061139  0.33158412  0.63849676
   0.66699506  0.83395160  0.63954015
   0.49608633  0.39390938  0.72412402
   0.50147327  0.38692356  0.76438046
Direct configuration=     9
   0.16667706  0.33334831  0.38825980
   0.16666356  0.83332255  0.38826199
   0.66666889  0.33334307  0.38825839
   0.66665623  0.83331866  0.38826098
  -0.00009715  0.00004465  0.61154956
  -0.00003914  0.49964500  0.61148735
   0.50025105 -0.00012569  0.61143425
   0.49966159  0.49880689  0.61281541
   0.33344803  0.16691178  0.49999888
   0.33344229  0.66652248  0.50003252
   0.83335357  0.16667962  0.49998519
   0.83308621  0.66653471  0.50003011
   0.16660703  0.33330755  0.47113900
   0.16666531  0.83332839  0.47114729
   0.66669884  0.33330545  0.47113755
   0.66669447  0.83339370  0.47114148
   0.00000037 -0.00000094  0.36050327
  -0.00000052  0.50000104  0.36050370
   0.49999937  0.00000062  0.36050336
   0.50000106  0.49999999  0.36050365
   0.33331968  0.16665081  0.58295373
   0.33339602  0.66677035  0.58293857
   0.83338788  0.16628099  0.58284215
   0.83336102  0.66684110  0.58294779
   0.00000016  0.00001249  0.52885707
  -0.00000283  0.49997738  0.52883206
   0.50001635  0.00000396  0.52885456
   0.49998993  0.50000151  0.52878903
   0.33333921  0.16667283  0.41708584
   0.33333382  0.66666299  0.41708870
   0.83333326  0.16667077  0.41708936
   0.83332895  0.66666072  0.41708827
   0.16491849  0.33266455  0.63939960
   0.16680000  0.83367415  0.63972407
   0.67071285  0.33151783  0.63853781
   0.66696196  0.83385969  0.63961782
   0.49576514  0.39446924  0.72414373
   0.50159999  0.38669882  0.76437208
Direct configuration=    10
   0.16667609  0.33334822  0.38827195
   0.16666135  0.83332140  0.38828006
   0.66667047  0.33334506  0.38827050
   0.66665748  0.83331857  0.38827473
  -0.00019107 -0.00019521  0.61151474
   0.00027765  0.49991582  0.61141390
   0.50009977 -0.00054210  0.61137232
   0.49968510  0.49893870  0.61279367
   0.33350114  0.16704198  0.49997927
   0.33350466  0.66644878  0.50003943
   0.83336781  0.16667477  0.49995908
   0.83295818  0.66647900  0.50003604
   0.16657451  0.33327728  0.47107356
   0.16667495  0.83334758  0.47108743
   0.66670096  0.33327476  0.47107307
   0.66671530  0.83343576  0.47107532
   0.00000003  0.00000101  0.36038293
  -0.00000091  0.49999938  0.36038285
   0.50000086  0.00000173  0.36038281
   0.50000018  0.49999968  0.36038262
   0.33343669  0.16687483  0.58309570
   0.33353676  0.66665627  0.58305887
   0.83345246  0.16609701  0.58286430
   0.83314874  0.66677797  0.58307502
   0.00003144  0.00003977  0.52891855
  -0.00002514  0.49994113  0.52888692
   0.50002725  0.00003810  0.52891276
   0.49996832  0.49994789  0.52891943
   0.33334196  0.16667916  0.41700174
   0.33333589  0.66665929  0.41700142
   0.83333405  0.16667238  0.41700415
   0.83332302  0.66665733  0.41700135
   0.16493046  0.33261955  0.63953129
   0.16683591  0.83378574  0.63986670
   0.67091577  0.33138526  0.63861991
   0.66689575  0.83367587  0.63977317
   0.49512275  0.39558895  0.72418314
   0.50185343  0.38624933  0.76435532
Direct configuration=    11
   0.16667413  0.33334804  0.38829624
   0.16665695  0.83331910  0.38831621
   0.66667363  0.33334904  0.38829471
   0.66665997  0.83331839  0.38830225
  -0.00037891 -0.00067492  0.61144509
   0.00091124  0.50045746  0.61126699
   0.49979720 -0.00137490  0.61124844
   0.49973210  0.49920231  0.61275021
   0.33360735  0.16730239  0.49994003
   0.33362940  0.66630137  0.50005323
   0.83339628  0.16666507  0.49990685
   0.83270210  0.66636758  0.50004791
   0.16650946  0.33321675  0.47094266
   0.16669424  0.83338596  0.47096770
   0.66670520  0.33321338  0.47094413
   0.66675696  0.83351988  0.47094300
  -0.00000064  0.00000492  0.36014223
  -0.00000169  0.49999605  0.36014113
   0.50000383  0.00000394  0.36014172
   0.49999841  0.49999907  0.36014056
   0.33367071  0.16732289  0.58337965
   0.33381822  0.66642812  0.58329947
   0.83358161  0.16572905  0.58290860
   0.83272420  0.66665170  0.58332949
   0.00009401  0.00009434  0.52904149
  -0.00006976  0.49986863  0.52899665
   0.50004907  0.00010640  0.52902915
   0.49992510  0.49984064  0.52918024
   0.33334746  0.16669180  0.41683354
   0.33334002  0.66665189  0.41682687
   0.83333563  0.16667561  0.41683371
   0.83331116  0.66665053  0.41682749
   0.16495442  0.33252955  0.63979468
   0.16690772  0.83400891  0.64015196
   0.67132161  0.33112010  0.63878412
   0.66676333  0.83330822  0.64008385
   0.49383798  0.39782838  0.72426196
   0.50236033  0.38535035  0.76432179
Direct configuration=    12
   0.16667184  0.33335206  0.38822436
   0.16665358  0.83331263  0.38826218
   0.66667965  0.33335310  0.38822480
   0.66665917  0.83331742  0.38823247
  -0.00037776 -0.00070053  0.61151783
   0.00096077  0.50041024  0.61133051
   0.49985635 -0.00142592  0.61131088
   0.49974176  0.49914319  0.61282715
   0.33360414  0.16731306  0.49996091
   0.33365139  0.66629399  0.50004714
   0.83340211  0.16663703  0.49991522
   0.83268304  0.66637723  0.50006047
   0.16653416  0.33323481  0.47096634
   0.16669755  0.83338035  0.47099958
   0.66669560  0.33322403  0.47096829
   0.66673879  0.83349312  0.47097014
  -0.00000112  0.00000965  0.36007153
  -0.00000349  0.49999091  0.36006972
   0.50000788  0.00000730  0.36007095
   0.49999628  0.49999717  0.36006866
   0.33374003  0.16743516  0.58345989
   0.33392074  0.66634968  0.58336091
   0.83363729  0.16554572  0.58289611
   0.83260728  0.66662198  0.58339685
   0.00014261  0.00005375  0.52899219
  -0.00003294  0.49991760  0.52895080
   0.49998733  0.00005930  0.52898169
   0.49991344  0.49983258  0.52918560
   0.33335554  0.16671239  0.41677578
   0.33334746  0.66663909  0.41677297
   0.83333865  0.16667815  0.41676924
   0.83329184  0.66664037  0.41677250
   0.16497733  0.33253320  0.63986713
   0.16693990  0.83403625  0.64021933
   0.67138516  0.33105850  0.63885713
   0.66667846  0.83313381  0.64018083
   0.49336793  0.39887753  0.72426249
   0.50255029  0.38493210  0.76431544
Direct configuration=    13
   0.16666498  0.33336411  0.38800870
   0.16664347  0.83329322  0.38810010
   0.66669772  0.33336528  0.38801507
   0.66665676  0.83331450  0.38802316
  -0.00037430 -0.00077736  0.61173605
   0.00110935  0.50026859  0.61152108
   0.50003381 -0.00157897  0.61149821
   0.49977073  0.49896582  0.61305797
   0.33359451  0.16734509  0.50002353
   0.33371738  0.66627185  0.50002886
   0.83341959  0.16655289  0.49994031
   0.83262586  0.66640620  0.50009818
   0.16660826  0.33328901  0.47103737
   0.16670749  0.83336352  0.47109520
   0.66666680  0.33325598  0.47104078
   0.66668427  0.83341284  0.47105156
  -0.00000256  0.00002384  0.35985940
  -0.00000889  0.49997547  0.35985551
   0.50002003  0.00001736  0.35985866
   0.49998988  0.49999146  0.35985296
   0.33394801  0.16777195  0.58370061
   0.33422831  0.66611437  0.58354522
   0.83380433  0.16499573  0.58285862
   0.83225653  0.66653284  0.58359892
   0.00028839 -0.00006801  0.52884428
   0.00007752  0.50006452  0.52881326
   0.49980210 -0.00008199  0.52883931
   0.49987846  0.49980841  0.52920169
   0.33337977  0.16677414  0.41660250
   0.33336978  0.66660067  0.41661127
   0.83334772  0.16668579  0.41657582
   0.83323388  0.66660991  0.41660755
   0.16504606  0.33254412  0.64008445
   0.16703644  0.83411828  0.64042143
   0.67157581  0.33087370  0.63907618
   0.66642383  0.83261057  0.64047177
   0.49195778  0.40202497  0.72426407
   0.50312016  0.38367735  0.76429639
Direct configuration=    14
   0.16665125  0.33338822  0.38757738
   0.16662324  0.83325439  0.38777592
   0.66673387  0.33338964  0.38759561
   0.66665194  0.83330866  0.38760452
  -0.00036739 -0.00093101  0.61217249
   0.00140652  0.49998529  0.61190221
   0.50038872 -0.00188507  0.61187287
   0.49982868  0.49861108  0.61351961
   0.33357525  0.16740914  0.50014878
   0.33384934  0.66622755  0.49999231
   0.83345455  0.16638462  0.49999051
   0.83251150  0.66646414  0.50017358
   0.16675645  0.33339740  0.47117943
   0.16672736  0.83332986  0.47128645
   0.66660921  0.33331988  0.47118577
   0.66657524  0.83325229  0.47121440
  -0.00000545  0.00005221  0.35943515
  -0.00001969  0.49994460  0.35942708
   0.50004433  0.00003748  0.35943408
   0.49997710  0.49998006  0.35942158
   0.33436396  0.16844554  0.58418205
   0.33484346  0.66564373  0.58391384
   0.83413842  0.16389575  0.58278364
   0.83155502  0.66635456  0.58400306
   0.00057997 -0.00031153  0.52854846
   0.00029844  0.50035836  0.52853819
   0.49943164 -0.00036457  0.52855454
   0.49980850  0.49976005  0.52923386
   0.33342824  0.16689764  0.41625594
   0.33341442  0.66652384  0.41628787
   0.83336587  0.16670106  0.41618898
   0.83311796  0.66654897  0.41627765
   0.16518351  0.33256598  0.64051910
   0.16722952  0.83428233  0.64082564
   0.67195710  0.33050408  0.63951427
   0.66591458  0.83156408  0.64105364
   0.48913748  0.40831986  0.72426725
   0.50425991  0.38116784  0.76425828
Direct configuration=    15
   0.16665990  0.33337302  0.38784933
   0.16663599  0.83327887  0.38798032
   0.66671108  0.33337428  0.38786009
   0.66665498  0.83331234  0.38786848
  -0.00037175 -0.00083413  0.61189730
   0.00121915  0.50016392  0.61166190
   0.50016494 -0.00169207  0.61163664
   0.49979214  0.49883475  0.61322854
   0.33358739  0.16736875  0.50006981
   0.33376614  0.66625548  0.50001536
   0.83343251  0.16649072  0.49995886
   0.83258361  0.66642761  0.50012604
   0.16666301  0.33332905  0.47108986
   0.16671483  0.83335109  0.47116586
   0.66664553  0.33327959  0.47109435
   0.66664399  0.83335352  0.47111173
  -0.00000363  0.00003432  0.35970265
  -0.00001288  0.49996406  0.35969721
   0.50002901  0.00002479  0.35970179
   0.49998516  0.49998725  0.35969358
   0.33410169  0.16802083  0.58387849
   0.33445560  0.66594048  0.58368142
   0.83392777  0.16458932  0.58283092
   0.83199734  0.66646697  0.58374824
   0.00039612 -0.00015798  0.52873498
   0.00015915  0.50017309  0.52871163
   0.49966522 -0.00018640  0.52873410
   0.49985261  0.49979054  0.52921357
   0.33339768  0.16681977  0.41647446
   0.33338627  0.66657228  0.41649178
   0.83335443  0.16669143  0.41643289
   0.83319105  0.66658739  0.41648566
   0.16509684  0.33255220  0.64024504
   0.16710778  0.83417889  0.64057078
   0.67171669  0.33073713  0.63923804
   0.66623567  0.83222391  0.64068675
   0.49091575  0.40435079  0.72426525
   0.50354127  0.38275014  0.76428231
Direct configuration=    16
   0.16665933  0.33337330  0.38782526
   0.16663505  0.83327794  0.38796230
   0.66671214  0.33337514  0.38783691
   0.66665529  0.83331229  0.38784490
  -0.00036842 -0.00083948  0.61192183
   0.00122986  0.50014195  0.61168380
   0.50018764 -0.00170196  0.61165831
   0.49979520  0.49881319  0.61325536
   0.33358597  0.16736931  0.50007606
   0.33377105  0.66625413  0.50001240
   0.83343440  0.16648221  0.49996010
   0.83258055  0.66643072  0.50012912
   0.16667237  0.33333564  0.47109816
   0.16671568  0.83334863  0.47117644
   0.66664209  0.33328396  0.47110296
   0.66663750  0.83334312  0.47112116
  -0.00000396  0.00003543  0.35967984
  -0.00001309  0.49996295  0.35967415
   0.50002996  0.00002530  0.35967899
   0.49998457  0.49998710  0.35967019
   0.33412167  0.16804941  0.58390397
   0.33448508  0.66591784  0.58370091
   0.83394473  0.16453058  0.58282822
   0.83196687  0.66645879  0.58376972
   0.00041398 -0.00017361  0.52871903
   0.00017218  0.50019071  0.52869773
   0.49964309 -0.00020348  0.52871930
   0.49984937  0.49978834  0.52921333
   0.33339997  0.16682613  0.41645600
   0.33338890  0.66656838  0.41647445
   0.83335537  0.16669180  0.41641216
   0.83318493  0.66658457  0.41646812
   0.16509722  0.33255126  0.64026814
   0.16711860  0.83418362  0.64059127
   0.67173568  0.33071565  0.63926356
   0.66621064  0.83217364  0.64071799
   0.49077766  0.40468498  0.72429734
   0.50359086  0.38262852  0.76424650
Direct configuration=    17
   0.16665761  0.33337414  0.38775304
   0.16663222  0.83327513  0.38790826
   0.66671534  0.33337773  0.38776737
   0.66665622  0.83331214  0.38777417
  -0.00035845 -0.00085553  0.61199540
   0.00126200  0.50007605  0.61174950
   0.50025575 -0.00173165  0.61172332
   0.49980440  0.49874849  0.61333584
   0.33358173  0.16737099  0.50009480
   0.33378579  0.66625006  0.50000352
   0.83344007  0.16645667  0.49996380
   0.83257140  0.66644005  0.50013837
   0.16670043  0.33335542  0.47112306
   0.16671825  0.83334128  0.47120818
   0.66663178  0.33329707  0.47112877
   0.66661806  0.83331191  0.47114947
  -0.00000493  0.00003876  0.35961138
  -0.00001372  0.49995960  0.35960496
   0.50003281  0.00002683  0.35961059
   0.49998280  0.49998666  0.35960004
   0.33418162  0.16813517  0.58398042
   0.33457354  0.66584992  0.58375941
   0.83399562  0.16435438  0.58282014
   0.83187547  0.66643423  0.58383418
   0.00046754 -0.00022047  0.52867119
   0.00021129  0.50024357  0.52865603
   0.49957671 -0.00025471  0.52867490
   0.49983965  0.49978174  0.52921260
   0.33340684  0.16684520  0.41640064
   0.33339677  0.66655665  0.41642247
   0.83335818  0.16669289  0.41634998
   0.83316658  0.66657612  0.41641550
   0.16509836  0.33254843  0.64033744
   0.16715105  0.83419782  0.64065275
   0.67179266  0.33065120  0.63934010
   0.66613555  0.83202282  0.64081170
   0.49036340  0.40568756  0.72439361
   0.50373963  0.38226367  0.76413908
Direct configuration=    18
   0.16665416  0.33337582  0.38760860
   0.16662657  0.83326951  0.38780017
   0.66672172  0.33338290  0.38762829
   0.66665809  0.83331184  0.38763270
  -0.00033850 -0.00088762  0.61214255
   0.00132628  0.49994426  0.61188090
   0.50039198 -0.00179102  0.61185334
   0.49982278  0.49861909  0.61349679
   0.33357323  0.16737435  0.50013230
   0.33381526  0.66624194  0.49998577
   0.83345141  0.16640561  0.49997122
   0.83255308  0.66645872  0.50015687
   0.16675655  0.33339496  0.47117288
   0.16672339  0.83332657  0.47127166
   0.66661117  0.33332328  0.47118041
   0.66657916  0.83324949  0.47120609
  -0.00000689  0.00004542  0.35947448
  -0.00001499  0.49995291  0.35946658
   0.50003851  0.00002989  0.35947380
   0.49997925  0.49998578  0.35945974
   0.33430151  0.16830669  0.58413330
   0.33475046  0.66571408  0.58387639
   0.83409739  0.16400197  0.58280397
   0.83169266  0.66638513  0.58396310
   0.00057466 -0.00031421  0.52857550
   0.00028952  0.50034929  0.52857262
   0.49944394 -0.00035717  0.52858610
   0.49982022  0.49976854  0.52921114
   0.33342059  0.16688335  0.41628992
   0.33341251  0.66653320  0.41631852
   0.83336381  0.16669508  0.41622561
   0.83312987  0.66655921  0.41631025
   0.16510064  0.33254277  0.64047604
   0.16721597  0.83422620  0.64077570
   0.67190662  0.33052230  0.63949318
   0.66598537  0.83172119  0.64099912
   0.48953489  0.40769271  0.72458616
   0.50403715  0.38153396  0.76392425
Direct configuration=    19
   0.16664728  0.33337918  0.38731972
   0.16661526  0.83325827  0.38758398
   0.66673450  0.33339326  0.38735014
   0.66666182  0.83331123  0.38734976
  -0.00029860 -0.00095182  0.61243685
   0.00145483  0.49968067  0.61214370
   0.50066443 -0.00190976  0.61211339
   0.49985954  0.49836030  0.61381870
   0.33355625  0.16738106  0.50020728
   0.33387421  0.66622569  0.49995027
   0.83347409  0.16630348  0.49998606
   0.83251645  0.66649605  0.50019388
   0.16686880  0.33347405  0.47127250
   0.16673366  0.83329716  0.47139862
   0.66656993  0.33337570  0.47128367
   0.66650136  0.83312465  0.47131931
  -0.00001081  0.00005875  0.35920067
  -0.00001751  0.49993953  0.35918982
   0.50004991  0.00003601  0.35920021
   0.49997216  0.49998402  0.35917913
   0.33454129  0.16864973  0.58443908
   0.33510429  0.66544240  0.58411036
   0.83430092  0.16329716  0.58277163
   0.83132705  0.66628691  0.58422093
   0.00078891 -0.00050167  0.52838412
   0.00044596  0.50056073  0.52840580
   0.49917841 -0.00056210  0.52840852
   0.49978136  0.49974215  0.52920822
   0.33344808  0.16695964  0.41606848
   0.33344400  0.66648629  0.41611060
   0.83337507  0.16669947  0.41597687
   0.83305646  0.66652540  0.41609975
   0.16510520  0.33253145  0.64075324
   0.16734579  0.83428298  0.64102160
   0.67213454  0.33026449  0.63979934
   0.66568501  0.83111792  0.64137397
   0.48787787  0.41170303  0.72497125
   0.50463221  0.38007454  0.76349457
Direct configuration=    20
   0.16664960  0.33337805  0.38741697
   0.16661907  0.83326206  0.38765676
   0.66673020  0.33338977  0.38744378
   0.66666056  0.83331143  0.38744501
  -0.00031203 -0.00093021  0.61233778
   0.00141155  0.49976940  0.61205523
   0.50057272 -0.00186978  0.61202585
   0.49984717  0.49844742  0.61371033
   0.33356197  0.16737880  0.50018204
   0.33385437  0.66623116  0.49996222
   0.83346646  0.16633786  0.49998107
   0.83252878  0.66648349  0.50018142
   0.16683101  0.33344742  0.47123897
   0.16673020  0.83330706  0.47135588
   0.66658381  0.33335806  0.47124891
   0.66652755  0.83316667  0.47128120
  -0.00000949  0.00005426  0.35929284
  -0.00001666  0.49994403  0.35928298
   0.50004607  0.00003395  0.35929230
   0.49997455  0.49998462  0.35927359
   0.33446057  0.16853425  0.58433615
   0.33498518  0.66553386  0.58403160
   0.83423241  0.16353442  0.58278252
   0.83145012  0.66631997  0.58413414
   0.00071679 -0.00043857  0.52844854
   0.00039330  0.50048955  0.52846196
   0.49926780 -0.00049312  0.52846830
   0.49979444  0.49975104  0.52920920
   0.33343883  0.16693396  0.41614302
   0.33343340  0.66650208  0.41618059
   0.83337128  0.16669799  0.41606060
   0.83308117  0.66653678  0.41617061
   0.16510366  0.33253526  0.64065993
   0.16730209  0.83426387  0.64093882
   0.67205782  0.33035127  0.63969628
   0.66578612  0.83132100  0.64124779
   0.48843567  0.41035305  0.72484162
   0.50443190  0.38056582  0.76363921
Direct configuration=    21
   0.16665121  0.33337112  0.38739765
   0.16661955  0.83326994  0.38764408
   0.66672400  0.33338742  0.38742695
   0.66666454  0.83331256  0.38742468
  -0.00029712 -0.00093882  0.61235620
   0.00141021  0.49973468  0.61207037
   0.50059623 -0.00187072  0.61204327
   0.49985328  0.49843300  0.61373904