CeO2                                    
           1
     7.707464    0.000000    0.000000
    -3.853732    6.674860    0.000000
     0.000000    0.000000   28.319031
   Ce   O    C    O 
  12  24   1   1
Direct configuration=     1
   0.16666700  0.33333300  0.38888900
   0.16666700  0.83333300  0.38888900
   0.66666700  0.33333300  0.38888900
   0.66666700  0.83333300  0.38888900
   0.00000000  0.00000000  0.61111100
   0.00000000  0.50000000  0.61111100
   0.50000000  0.00000000  0.61111100
   0.50000000  0.50000000  0.61111100
   0.33333300  0.16666700  0.50000000
   0.33333300  0.66666700  0.50000000
   0.83333300  0.16666700  0.50000000
   0.83333300  0.66666700  0.50000000
   0.16666700  0.33333300  0.47222200
   0.16666700  0.83333300  0.47222200
   0.66666700  0.33333300  0.47222200
   0.66666700  0.83333300  0.47222200
   0.00000000  0.00000000  0.36111100
   0.00000000  0.50000000  0.36111100
   0.50000000  0.00000000  0.36111100
   0.50000000  0.50000000  0.36111100
   0.33333300  0.16666700  0.58333300
   0.33333300  0.66666700  0.58333300
   0.83333300  0.16666700  0.58333300
   0.83333300  0.66666700  0.58333300
   0.00000000  0.00000000  0.52777800
   0.00000000  0.50000000  0.52777800
   0.50000000  0.00000000  0.52777800
   0.50000000  0.50000000  0.52777800
   0.33333300  0.16666700  0.41666700
   0.33333300  0.66666700  0.41666700
   0.83333300  0.16666700  0.41666700
   0.83333300  0.66666700  0.41666700
   0.16666700  0.33333300  0.63888900
   0.16666700  0.83333300  0.63888900
   0.66666700  0.33333300  0.63888900
   0.66666700  0.83333300  0.63888900
   0.00000000  0.05555600  0.72389500
   0.00000000  0.05555600  0.76422100
Direct configuration=     2
   0.16666815  0.33332775  0.38862298
   0.16666280  0.83333667  0.38862203
   0.66666464  0.33333517  0.38862173
   0.66667189  0.83333153  0.38862254
  -0.00004522  0.00029621  0.61196857
   0.00014304  0.50005592  0.61128604
   0.49996230 -0.00011649  0.61129662
   0.49990832  0.50008865  0.61129216
   0.33325085  0.16663443  0.50001466
   0.33333577  0.66665924  0.50000204
   0.83337828  0.16662767  0.50001398
   0.83336809  0.66674845  0.50001536
   0.16667956  0.33335309  0.47179323
   0.16667620  0.83332339  0.47179296
   0.66666467  0.33333490  0.47179476
   0.66664663  0.83331982  0.47179275
  -0.00000109 -0.00000290  0.36089945
  -0.00000239  0.50000044  0.36089906
   0.50000012  0.00000091  0.36089914
   0.50000264  0.50000017  0.36089935
   0.33350255  0.16673394  0.58311142
   0.33333287  0.66670253  0.58311493
   0.83324897  0.16674252  0.58310996
   0.83325275  0.66648370  0.58311150
   0.00000107 -0.00000520  0.52811579
   0.00000859  0.50000593  0.52820709
   0.49999390 -0.00000960  0.52820776
   0.49999681  0.50000394  0.52820433
   0.33333545  0.16666824  0.41688352
   0.33333519  0.66666696  0.41688394
   0.83333186  0.16666591  0.41688309
   0.83333093  0.66666528  0.41688313
   0.16758845  0.33497021  0.63892301
   0.16695083  0.83304048  0.63911012
   0.66667836  0.33329690  0.63918549
   0.66572600  0.83279994  0.63904896
  -0.00040956  0.05372835  0.72352358
   0.00015975  0.05629696  0.76445898
Direct configuration=     3
   0.16666817  0.33332767  0.38861866
   0.16666273  0.83333673  0.38861769
   0.66666460  0.33333520  0.38861738
   0.66667197  0.83333150  0.38861821
  -0.00004595  0.00030103  0.61198251
   0.00014537  0.50005682  0.61128888
   0.49996169 -0.00011838  0.61129963
   0.49990683  0.50009009  0.61129510
   0.33324951  0.16663390  0.50001490
   0.33333581  0.66665911  0.50000207
   0.83337902  0.16662703  0.50001421
   0.83336866  0.66674978  0.50001561
   0.16667976  0.33335342  0.47178626
   0.16667634  0.83332323  0.47178599
   0.66666463  0.33333493  0.47178782
   0.66664630  0.83331961  0.47178578
  -0.00000111 -0.00000295  0.36089601
  -0.00000242  0.50000045  0.36089561
   0.50000012  0.00000093  0.36089570
   0.50000268  0.50000017  0.36089591
   0.33350530  0.16673503  0.58310782
   0.33333287  0.66670311  0.58311139
   0.83324760  0.16674375  0.58310634
   0.83325145  0.66648072  0.58310790
   0.00000109 -0.00000529  0.52812128
   0.00000873  0.50000603  0.52821406
   0.49999380 -0.00000976  0.52821475
   0.49999676  0.50000400  0.52821125
   0.33333549  0.16666826  0.41688704
   0.33333522  0.66666696  0.41688746
   0.83333184  0.16666589  0.41688660
   0.83333089  0.66666525  0.41688664
   0.16760343  0.33499682  0.63892356
   0.16695544  0.83303572  0.63911371
   0.66667854  0.33329631  0.63919031
   0.66571071  0.83279127  0.63905156
  -0.00041622  0.05369865  0.72351754
   0.00016234  0.05630901  0.76446284
Direct configuration=     4
   0.16666819  0.33332668  0.38856979
   0.16666200  0.83333738  0.38856872
   0.66666429  0.33333553  0.38856838
   0.66667292  0.83333145  0.38856929
  -0.00005404  0.00035205  0.61214091
   0.00016258  0.50007108  0.61131880
   0.49995446 -0.00013184  0.61133203
   0.49989989  0.50010500  0.61132583
   0.33322776  0.16662417  0.50001729
   0.33333636  0.66665823  0.50000078
   0.83339033  0.16661637  0.50001594
   0.83337874  0.66677162  0.50001834
   0.16668305  0.33335960  0.47170299
   0.16667943  0.83332024  0.47170265
   0.66666435  0.33333506  0.47170514
   0.66664009  0.83331632  0.47170243
  -0.00000124 -0.00000335  0.36085157
  -0.00000265  0.50000060  0.36085112
   0.50000007  0.00000098  0.36085122
   0.50000301  0.50000026  0.36085145
   0.33352682  0.16674251  0.58307227
   0.33333357  0.66671372  0.58307236
   0.83323709  0.16675302  0.58307069
   0.83324179  0.66645725  0.58307219
   0.00000105 -0.00000528  0.52819094
   0.00001169  0.50000708  0.52829751
   0.49999271 -0.00001252  0.52829839
   0.49999500  0.50000549  0.52829416
   0.33333559  0.16666841  0.41692416
   0.33333558  0.66666689  0.41692479
   0.83333188  0.16666562  0.41692370
   0.83333068  0.66666527  0.41692369
   0.16777911  0.33531017  0.63893509
   0.16700719  0.83298396  0.63916126
   0.66668104  0.33328787  0.63925160
   0.66553423  0.83269266  0.63908723
  -0.00049793  0.05332677  0.72355668
   0.00019332  0.05645569  0.76439461
Direct configuration=     5
   0.16666823  0.33332473  0.38847297
   0.16666056  0.83333868  0.38847169
   0.66666368  0.33333619  0.38847129
   0.66667482  0.83333135  0.38847235
  -0.00007006  0.00045313  0.61245476
   0.00019669  0.50009933  0.61137807
   0.49994014 -0.00015850  0.61139622
   0.49988615  0.50013453  0.61138672
   0.33318468  0.16660490  0.50002203
   0.33333746  0.66665648  0.49999822
   0.83341275  0.16659524  0.50001938
   0.83339870  0.66681490  0.50002375
   0.16668955  0.33337183  0.47153801
   0.16668554  0.83331431  0.47153753
   0.66666379  0.33333533  0.47154133
   0.66662778  0.83330980  0.47153729
  -0.00000151 -0.00000415  0.36076351
  -0.00000311  0.50000089  0.36076296
   0.49999998  0.00000108  0.36076308
   0.50000366  0.50000043  0.36076336
   0.33356945  0.16675732  0.58300182
   0.33333496  0.66673475  0.58299504
   0.83321626  0.16677139  0.58300007
   0.83322267  0.66641077  0.58300142
   0.00000097 -0.00000527  0.52832896
   0.00001755  0.50000916  0.52846285
   0.49999056 -0.00001799  0.52846413
   0.49999149  0.50000844  0.52845844
   0.33333579  0.16666871  0.41699771
   0.33333628  0.66666673  0.41699873
   0.83333195  0.16666509  0.41699722
   0.83333025  0.66666531  0.41699709
   0.16812720  0.33593102  0.63895793
   0.16710971  0.83288141  0.63925546
   0.66668598  0.33327115  0.63937305
   0.66518458  0.83249728  0.63915790
  -0.00065982  0.05258995  0.72363423
   0.00025470  0.05674632  0.76425942
Direct configuration=     6
   0.16666831  0.33332083  0.38827932
   0.16665767  0.83334126  0.38827763
   0.66666245  0.33333750  0.38827711
   0.66667862  0.83333113  0.38827849
  -0.00010210  0.00065530  0.61308245
   0.00026490  0.50015584  0.61149662
   0.49991150 -0.00021182  0.61152460
   0.49985866  0.50019360  0.61150850
   0.33309850  0.16656635  0.50003152
   0.33333964  0.66665299  0.49999309
   0.83345759  0.16655299  0.50002626
   0.83343864  0.66690145  0.50003458
   0.16670255  0.33339630  0.47120805
   0.16669776  0.83330245  0.47120728
   0.66666268  0.33333587  0.47121371
   0.66660316  0.83329677  0.47120701
  -0.00000205 -0.00000576  0.36058738
  -0.00000402  0.50000148  0.36058665
   0.49999980  0.00000128  0.36058681
   0.50000496  0.50000078  0.36058718
   0.33365471  0.16678695  0.58286093
   0.33333774  0.66677681  0.58284040
   0.83317460  0.16680812  0.58285883
   0.83318443  0.66631779  0.58285988
   0.00000081 -0.00000525  0.52860500
   0.00002928  0.50001332  0.52879352
   0.49998625 -0.00002893  0.52879559
   0.49998449  0.50001434  0.52878698
   0.33333618  0.16666930  0.41714480
   0.33333769  0.66666642  0.41714662
   0.83333211  0.16666402  0.41714426
   0.83332940  0.66666539  0.41714389
   0.16882339  0.33717273  0.63900361
   0.16731475  0.83267630  0.63944387
   0.66669587  0.33323772  0.63961595
   0.66448526  0.83210651  0.63929924
  -0.00098361  0.05111631  0.72378934
   0.00037746  0.05732757  0.76398903
Direct configuration=     7
   0.16666828  0.33332216  0.38834532
   0.16665866  0.83334038  0.38834377
   0.66666287  0.33333706  0.38834330
   0.66667732  0.83333121  0.38834457
  -0.00009118  0.00058640  0.61286851
   0.00024165  0.50013658  0.61145621
   0.49992126 -0.00019365  0.61148084
   0.49986803  0.50017347  0.61146699
   0.33312787  0.16657949  0.50002829
   0.33333890  0.66665418  0.49999484
   0.83344231  0.16656739  0.50002392
   0.83342503  0.66687195  0.50003089
   0.16669812  0.33338796  0.47132052
   0.16669359  0.83330649  0.47131984
   0.66666306  0.33333569  0.47132538
   0.66661155  0.83330121  0.47131959
  -0.00000187 -0.00000521  0.36064741
  -0.00000371  0.50000128  0.36064674
   0.49999986  0.00000121  0.36064689
   0.50000452  0.50000066  0.36064723
   0.33362565  0.16677685  0.58290895
   0.33333679  0.66676247  0.58289311
   0.83318880  0.16679560  0.58290697
   0.83319747  0.66634948  0.58290812
   0.00000086 -0.00000526  0.52851091
   0.00002528  0.50001190  0.52868081
   0.49998772 -0.00002520  0.52868262
   0.49998688  0.50001233  0.52867500
   0.33333605  0.16666910  0.41709467
   0.33333721  0.66666653  0.41709622
   0.83333206  0.16666438  0.41709414
   0.83332969  0.66666536  0.41709386
   0.16858610  0.33674951  0.63898804
   0.16724486  0.83274621  0.63937965
   0.66669250  0.33324911  0.63953316
   0.66472361  0.83223970  0.63925107
  -0.00087325  0.05161859  0.72373647
   0.00033562  0.05712946  0.76408119
Direct configuration=     8
   0.16666828  0.33332203  0.38833911
   0.16665856  0.83334046  0.38833755
   0.66666283  0.33333710  0.38833707
   0.66667745  0.83333120  0.38833835
  -0.00009221  0.00059288  0.61288865
   0.00024384  0.50013839  0.61146002
   0.49992034 -0.00019536  0.61148496
   0.49986714  0.50017536  0.61147090
   0.33312511  0.16657825  0.50002859
   0.33333897  0.66665406  0.49999467
   0.83344375  0.16656603  0.50002414
   0.83342631  0.66687473  0.50003124
   0.16669853  0.33338874  0.47130993
   0.16669399  0.83330611  0.47130925
   0.66666302  0.33333571  0.47131486
   0.66661076  0.83330080  0.47130899
  -0.00000189 -0.00000526  0.36064176
  -0.00000374  0.50000130  0.36064109
   0.49999985  0.00000122  0.36064123
   0.50000456  0.50000067  0.36064157
   0.33362839  0.16677780  0.58290443
   0.33333688  0.66676382  0.58288815
   0.83318746  0.16679678  0.58290244
   0.83319624  0.66634650  0.58290358
   0.00000086 -0.00000526  0.52851977
   0.00002566  0.50001203  0.52869142
   0.49998758 -0.00002556  0.52869325
   0.49998665  0.50001252  0.52868554
   0.33333606  0.16666912  0.41709939
   0.33333725  0.66666652  0.41710096
   0.83333206  0.16666435  0.41709886
   0.83332966  0.66666536  0.41709857
   0.16860844  0.33678935  0.63898951
   0.16725144  0.83273963  0.63938570
   0.66669281  0.33324804  0.63954096
   0.66470118  0.83222716  0.63925560
  -0.00088364  0.05157130  0.72374145
   0.00033956  0.05714811  0.76407251
Direct configuration=     9
   0.16666828  0.33332211  0.38834281
   0.16665862  0.83334041  0.38834125
   0.66666285  0.33333707  0.38834077
   0.66667737  0.83333120  0.38834204
  -0.00009160  0.00058903  0.61287668
   0.00024254  0.50013731  0.61145776
   0.49992089 -0.00019434  0.61148251
   0.49986767  0.50017424  0.61146858
   0.33312675  0.16657898  0.50002841
   0.33333893  0.66665413  0.49999477
   0.83344289  0.16656684  0.50002401
   0.83342555  0.66687308  0.50003103
   0.16669829  0.33338828  0.47131622
   0.16669375  0.83330634  0.47131555
   0.66666304  0.33333570  0.47132111
   0.66661123  0.83330104  0.47131529
  -0.00000188 -0.00000523  0.36064512
  -0.00000372  0.50000128  0.36064445
   0.49999986  0.00000121  0.36064459
   0.50000453  0.50000066  0.36064493
   0.33362676  0.16677723  0.58290712
   0.33333683  0.66676302  0.58289110
   0.83318826  0.16679608  0.58290513
   0.83319697  0.66634827  0.58290628
   0.00000086 -0.00000526  0.52851451
   0.00002544  0.50001196  0.52868512
   0.49998766 -0.00002535  0.52868693
   0.49998679  0.50001240  0.52867927
   0.33333605  0.16666911  0.41709658
   0.33333723  0.66666652  0.41709814
   0.83333206  0.16666437  0.41709606
   0.83332968  0.66666536  0.41709577
   0.16859516  0.33676566  0.63898864
   0.16724753  0.83274354  0.63938210
   0.66669262  0.33324868  0.63953632
   0.66471452  0.83223462  0.63925291
  -0.00087747  0.05159941  0.72373849
   0.00033722  0.05713702  0.76407767
Direct configuration=    10
   0.16666780  0.33332168  0.38834224
   0.16665836  0.83334046  0.38834090
   0.66666309  0.33333702  0.38834139
   0.66667787  0.83333161  0.38834155
  -0.00009080  0.00058137  0.61288028
   0.00021525  0.50015225  0.61144975
   0.49991892 -0.00016963  0.61147630
   0.49989916  0.50017136  0.61145947
   0.33310278  0.16656566  0.50002803
   0.33333925  0.66665590  0.49998983
   0.83345381  0.16655425  0.50002188
   0.83343830  0.66689766  0.50003128
   0.16670143  0.33339595  0.47130368
   0.16669801  0.83330240  0.47130296
   0.66666341  0.33333504  0.47130976
   0.66660349  0.83329803  0.47130276
  -0.00000176 -0.00000505  0.36062583
  -0.00000312  0.50000143  0.36062524
   0.49999959  0.00000070  0.36062538
   0.50000410  0.50000079  0.36062567
   0.33359156  0.16675923  0.58292775
   0.33333971  0.66677946  0.58289598
   0.83320608  0.16677885  0.58292664
   0.83321569  0.66638566  0.58292614
  -0.00000002 -0.00000211  0.52853754
   0.00002936  0.50001174  0.52869745
   0.49998801 -0.00002798  0.52869958
   0.49998336  0.50001460  0.52869138
   0.33333448  0.16666857  0.41708468
   0.33333716  0.66666619  0.41708640
   0.83333303  0.16666373  0.41708431
   0.83333032  0.66666679  0.41708385
   0.16861317  0.33680172  0.63900751
   0.16724358  0.83275318  0.63940690
   0.66669395  0.33324227  0.63956025
   0.66470814  0.83223577  0.63927537
  -0.00090418  0.05144838  0.72373284
   0.00034764  0.05719708  0.76406726
Direct configuration=    11
   0.16666634  0.33332040  0.38834053
   0.16665758  0.83334059  0.38833986
   0.66666380  0.33333688  0.38834325
   0.66667935  0.83333283  0.38834008
  -0.00008842  0.00055839  0.61289107
   0.00013338  0.50019705  0.61142575
   0.49991299 -0.00009550  0.61145768
   0.49999364  0.50016272  0.61143213
   0.33303086  0.16652568  0.50002689
   0.33334023  0.66666119  0.49997502
   0.83348657  0.16651648  0.50001551
   0.83347658  0.66697140  0.50003202
   0.16671087  0.33341896  0.47126604
   0.16671077  0.83329060  0.47126521
   0.66666453  0.33333309  0.47127570
   0.66658027  0.83328899  0.47126516
  -0.00000139 -0.00000450  0.36056794
  -0.00000132  0.50000188  0.36056762
   0.49999880 -0.00000084  0.36056772
   0.50000278  0.50000115  0.36056788
   0.33348596  0.16670520  0.58298963
   0.33334835  0.66682876  0.58291062
   0.83325956  0.16672716  0.58299116
   0.83327186  0.66649784  0.58298573
  -0.00000267  0.00000731  0.52860663
   0.00004115  0.50001111  0.52873445
   0.49998908 -0.00003588  0.52873754
   0.49997310  0.50002119  0.52872770
   0.33332978  0.16666695  0.41704896
   0.33333697  0.66666518  0.41705117
   0.83333593  0.16666183  0.41704908
   0.83333225  0.66667108  0.41704811
   0.16866722  0.33690988  0.63906415
   0.16723173  0.83278211  0.63948130
   0.66669791  0.33322305  0.63963202
   0.66468903  0.83223922  0.63934275
  -0.00098431  0.05099527  0.72371591
   0.00037891  0.05737728  0.76403602
Direct configuration=    12
   0.16666342  0.33331782  0.38833712
   0.16665603  0.83334084  0.38833777
   0.66666522  0.33333658  0.38834697
   0.66668231  0.83333528  0.38833715
  -0.00008366  0.00051243  0.61291267
  -0.00003035  0.50028665  0.61137775
   0.49990115  0.00005276  0.61142043
   0.50018259  0.50014545  0.61137746
   0.33288701  0.16644572  0.50002461
   0.33334220  0.66667178  0.49994540
   0.83355209  0.16644093  0.50000276
   0.83355312  0.66711888  0.50003349
   0.16672976  0.33346498  0.47119076
   0.16673629  0.83326700  0.47118971
   0.66666675  0.33332918  0.47120758
   0.66653383  0.83327090  0.47118997
  -0.00000066 -0.00000339  0.36045217
   0.00000229  0.50000278  0.36045237
   0.49999721 -0.00000392  0.36045242
   0.50000015  0.50000189  0.36045231
   0.33327475  0.16659716  0.58311340
   0.33336564  0.66692738  0.58293991
   0.83336650  0.16662377  0.58312020
   0.83338419  0.66672219  0.58310491
  -0.00000797  0.00002617  0.52874481
   0.00006473  0.50000983  0.52880845
   0.49999120 -0.00005167  0.52881345
   0.49995257  0.50003437  0.52880035
   0.33332038  0.16666373  0.41697753
   0.33333658  0.66666317  0.41698072
   0.83334174  0.16665804  0.41697861
   0.83333610  0.66667967  0.41697663
   0.16877533  0.33712622  0.63917742
   0.16720802  0.83283997  0.63963010
   0.66670584  0.33318461  0.63977557
   0.66465079  0.83224614  0.63947752
  -0.00114458  0.05008906  0.72368203
   0.00044143  0.05773767  0.76397356
Direct configuration=    13
   0.16665759  0.33331268  0.38833031
   0.16665292  0.83334136  0.38833359
   0.66666806  0.33333599  0.38835440
   0.66668823  0.83334017  0.38833127
  -0.00007414  0.00042051  0.61295586
  -0.00035782  0.50046587  0.61128174
   0.49987746  0.00034928  0.61134592
   0.50056048  0.50011091  0.61126811
   0.33259932  0.16628580  0.50002006
   0.33334613  0.66669295  0.49988615
   0.83368314  0.16628984  0.49997726
   0.83370621  0.66741385  0.50003644
   0.16676752  0.33355702  0.47104020
   0.16678733  0.83321979  0.47103871
   0.66667120  0.33332135  0.47107134
   0.66644096  0.83323473  0.47103958
   0.00000081 -0.00000119  0.36022062
   0.00000950  0.50000457  0.36022187
   0.49999404 -0.00001009  0.36022181
   0.49999488  0.50000336  0.36022116
   0.33285233  0.16638107  0.58336093
   0.33340022  0.66712461  0.58299849
   0.83358040  0.16641699  0.58337828
   0.83360886  0.66717090  0.58334326
  -0.00001857  0.00006388  0.52902118
   0.00011189  0.50000728  0.52895645
   0.49999546 -0.00008326  0.52896528
   0.49991151  0.50006072  0.52894564
   0.33330157  0.16665727  0.41683468
   0.33333580  0.66665914  0.41683982
   0.83335336  0.16665044  0.41683767
   0.83334381  0.66669683  0.41683367
   0.16899153  0.33755888  0.63940396
   0.16716062  0.83295569  0.63992769
   0.66672170  0.33310773  0.64006266
   0.66457432  0.83225996  0.63974706
  -0.00146512  0.04827664  0.72361428
   0.00056649  0.05845846  0.76384863
Direct configuration=    14
   0.16665985  0.33331439  0.38827767
   0.16665253  0.83334085  0.38828133
   0.66666732  0.33333774  0.38831608
   0.66668704  0.83333771  0.38827847
  -0.00007377  0.00043962  0.61302749
  -0.00034821  0.50052080  0.61132688
   0.49986280  0.00036036  0.61139471
   0.50058429  0.50014700  0.61131243
   0.33256535  0.16626258  0.50003114
   0.33334740  0.66670451  0.49989229
   0.83369498  0.16627140  0.49999045
   0.83372791  0.66745196  0.50004292
   0.16676602  0.33355405  0.47103264
   0.16678359  0.83322138  0.47103275
   0.66667214  0.33332376  0.47107160
   0.66644551  0.83323597  0.47103256
   0.00000076 -0.00000036  0.36015334
   0.00001313  0.50000564  0.36015553
   0.49999280 -0.00001347  0.36015555
   0.49999265  0.50000498  0.36015453
   0.33272966  0.16631838  0.58342312
   0.33341251  0.66721069  0.58299767
   0.83363995  0.16636337  0.58344444
   0.83368132  0.66731342  0.58340217
  -0.00002094  0.00006546  0.52905679
   0.00007835  0.49999640  0.52894627
   0.50001548 -0.00004123  0.52895525
   0.49992951  0.50005086  0.52893548
   0.33328391  0.16664866  0.41679184
   0.33333580  0.66665900  0.41679033
   0.83336210  0.16664179  0.41679399
   0.83335252  0.66671452  0.41679150
   0.16904079  0.33765967  0.63947444
   0.16713042  0.83299949  0.64001466
   0.66672806  0.33310206  0.64013470
   0.66456704  0.83226712  0.63982470
  -0.00157020  0.04758079  0.72351925
   0.00060964  0.05874068  0.76385903
Direct configuration=    15
   0.16666413  0.33331762  0.38817814
   0.16665178  0.83333989  0.38818251
   0.66666592  0.33334104  0.38824362
   0.66668478  0.83333305  0.38817861
  -0.00007308  0.00047575  0.61316296
  -0.00033004  0.50062469  0.61141224
   0.49983509  0.00038131  0.61148698
   0.50062930  0.50021526  0.61139624
   0.33250111  0.16621865  0.50005209
   0.33334981  0.66672637  0.49990390
   0.83371739  0.16623653  0.50001541
   0.83376895  0.66752404  0.50005519
   0.16676317  0.33354842  0.47101836
   0.16677650  0.83322438  0.47102149
   0.66667391  0.33332831  0.47107211
   0.66645410  0.83323830  0.47101927
   0.00000068  0.00000121  0.36002610
   0.00001999  0.50000766  0.36003008
   0.49999047 -0.00001986  0.36003024
   0.49998843  0.50000805  0.36002852
   0.33249767  0.16619984  0.58354074
   0.33343575  0.66737348  0.58299611
   0.83375255  0.16626199  0.58356955
   0.83381836  0.66758295  0.58351358
  -0.00002542  0.00006846  0.52912414
   0.00001494  0.49997583  0.52892703
   0.50005334  0.00003824  0.52893627
   0.49996354  0.50003219  0.52891627
   0.33325052  0.16663238  0.41671083
   0.33333582  0.66665873  0.41669675
   0.83337865  0.16662542  0.41671137
   0.83336897  0.66674796  0.41671174
   0.16913393  0.33785027  0.63960773
   0.16707332  0.83308233  0.64017912
   0.66674008  0.33309134  0.64027092
   0.66455327  0.83228066  0.63997152
  -0.00176891  0.04626489  0.72333956
   0.00069125  0.05927437  0.76387870
Direct configuration=    16
   0.16666506  0.33331842  0.38815579
   0.16665184  0.83333973  0.38816019
   0.66666556  0.33334159  0.38822710
   0.66668412  0.83333213  0.38815612
  -0.00007313  0.00048599  0.61319295
  -0.00031825  0.50064362  0.61143380
   0.49982988  0.00037975  0.61150962
   0.50063019  0.50023159  0.61141769
   0.33249413  0.16621334  0.50005636
   0.33335028  0.66673062  0.49990687
   0.83371926  0.16623282  0.50002106
   0.83377399  0.66753258  0.50005733
   0.16676139  0.33354458  0.47101853
   0.16677351  0.83322649  0.47102228
   0.66667421  0.33332957  0.47107514
   0.66645868  0.83324001  0.47101962
   0.00000064  0.00000144  0.36000210
   0.00002119  0.50000811  0.36000656
   0.49999003 -0.00002099  0.36000676
   0.49998774  0.50000866  0.36000489
   0.33245724  0.16617967  0.58356207
   0.33344013  0.66740594  0.58299507
   0.83377219  0.16624533  0.58359232
   0.83384294  0.66763147  0.58353370
  -0.00002615  0.00006848  0.52913300
  -0.00000151  0.49997074  0.52892015
   0.50006255  0.00005844  0.52892927
   0.49997256  0.50002700  0.52890953
   0.33324344  0.16662880  0.41669571
   0.33333584  0.66665889  0.41667870
   0.83338204  0.16662191  0.41669587
   0.83337256  0.66675514  0.41669688
   0.16915133  0.33788620  0.63963342
   0.16706273  0.83309715  0.64021003
   0.66674248  0.33309139  0.64029517
   0.66454902  0.83228199  0.63999908
  -0.00180456  0.04601357  0.72333337
   0.00070484  0.05936983  0.76385189
Direct configuration=    17
   0.16666787  0.33332083  0.38808875
   0.16665203  0.83333925  0.38809320
   0.66666447  0.33334321  0.38817755
   0.66668213  0.83332937  0.38808867
  -0.00007329  0.00051671  0.61328289
  -0.00028289  0.50070042  0.61149848
   0.49981424  0.00037506  0.61157752
   0.50063287  0.50028059  0.61148206
   0.33247318  0.16619742  0.50006915
   0.33335170  0.66674337  0.49991579
   0.83372488  0.16622167  0.50003800
   0.83378913  0.66755823  0.50006375
   0.16675607  0.33353306  0.47101903
   0.16676455  0.83323281  0.47102466
   0.66667508  0.33333333  0.47108423
   0.66647242  0.83324513  0.47102067
   0.00000052  0.00000216  0.35993012
   0.00002481  0.50000944  0.35993601
   0.49998870 -0.00002438  0.35993631
   0.49998567  0.50001048  0.35993398
   0.33233596  0.16611917  0.58362605
   0.33345326  0.66750334  0.58299194
   0.83383110  0.16619536  0.58366063
   0.83391667  0.66777704  0.58359405
  -0.00002835  0.00006855  0.52915959
  -0.00005086  0.49995549  0.52889951
   0.50009021  0.00011905  0.52890828
   0.49999964  0.50001140  0.52888931
   0.33322221  0.16661806  0.41665037
   0.33333589  0.66665937  0.41662455
   0.83339224  0.16661140  0.41664936
   0.83338333  0.66677670  0.41665230
   0.16920351  0.33799399  0.63971051
   0.16703098  0.83314159  0.64030277
   0.66674969  0.33309154  0.64036792
   0.66453627  0.83228597  0.64008176
  -0.00191153  0.04525959  0.72331482
   0.00074564  0.05965621  0.76377143
Direct configuration=    18
   0.16667349  0.33332565  0.38795466
   0.16665241  0.83333830  0.38795924
   0.66666230  0.33334646  0.38807846
   0.66667815  0.83332387  0.38795376
  -0.00007360  0.00057815  0.61346277
  -0.00021218  0.50081403  0.61162786
   0.49978297  0.00036568  0.61171334
   0.50063823  0.50037859  0.61161080
   0.33243128  0.16616556  0.50009473
   0.33335452  0.66676886  0.49993363
   0.83373613  0.16619939  0.50007189
   0.83381941  0.66760952  0.50007659
   0.16674543  0.33351001  0.47102004
   0.16674662  0.83324546  0.47102943
   0.66667683  0.33334086  0.47110242
   0.66649989  0.83325536  0.47102276
   0.00000029  0.00000358  0.35978616
   0.00003204  0.50001211  0.35979490
   0.49998605 -0.00003116  0.35979541
   0.49998154  0.50001413  0.35979217
   0.33209340  0.16599818  0.58375402
   0.33347952  0.66769814  0.58298568
   0.83394894  0.16609541  0.58379726
   0.83406414  0.66806817  0.58371475
  -0.00003275  0.00006869  0.52921275
  -0.00014956  0.49992498  0.52885822
   0.50014552  0.00024028  0.52886631
   0.50005378  0.49998021  0.52884888
   0.33317973  0.16659657  0.41655968
   0.33333599  0.66666032  0.41651625
   0.83341262  0.16659037  0.41655634
   0.83340487  0.66681982  0.41656314
   0.16930787  0.33820956  0.63986469
   0.16696747  0.83323048  0.64048824
   0.66676412  0.33309184  0.64051342
   0.66451076  0.83229394  0.64024713
  -0.00212546  0.04375165  0.72327771
   0.00082723  0.06022898  0.76361051
Direct configuration=    19
   0.16668474  0.33333530  0.38768647
   0.16665317  0.83333639  0.38769131
   0.66665795  0.33335296  0.38788027
   0.66667020  0.83331285  0.38768394
  -0.00007423  0.00070102  0.61382254
  -0.00007076  0.50104124  0.61188660
   0.49972042  0.00034693  0.61198496
   0.50064896  0.50057458  0.61186827
   0.33234748  0.16610186  0.50014590
   0.33336018  0.66681984  0.49996932
   0.83375861  0.16615482  0.50013968
   0.83387996  0.66771210  0.50010227
   0.16672414  0.33346392  0.47102205
   0.16671077  0.83327075  0.47103897
   0.66668034  0.33335591  0.47113880
   0.66655482  0.83327583  0.47102694
  -0.00000017  0.00000644  0.35949824
   0.00004650  0.50001745  0.35951268
   0.49998075 -0.00004472  0.35951361
   0.49997326  0.50002143  0.35950855
   0.33160828  0.16575620  0.58400995
   0.33353203  0.66808773  0.58297315
   0.83418461  0.16589552  0.58407052
   0.83435907  0.66865043  0.58395615
  -0.00004155  0.00006898  0.52931909
  -0.00034697  0.49986396  0.52877565
   0.50025614  0.00048272  0.52878236
   0.50016207  0.49991783  0.52876800
   0.33309479  0.16655360  0.41637830
   0.33333620  0.66666223  0.41629965
   0.83345340  0.16654830  0.41637030
   0.83344795  0.66690604  0.41638483
   0.16951660  0.33864069  0.64017305
   0.16684045  0.83340825  0.64085919
   0.66679296  0.33309245  0.64080442
   0.66445975  0.83230987  0.64057786
  -0.00255332  0.04073577  0.72320348
   0.00099042  0.06137451  0.76328868
Direct configuration=    20
   0.16670723  0.33335458  0.38715011
   0.16665470  0.83333257  0.38715545
   0.66664926  0.33336596  0.38748389
   0.66665430  0.83329081  0.38714429
  -0.00007548  0.00094676  0.61454208
   0.00021209  0.50149565  0.61240409
   0.49959533  0.00030942  0.61252822
   0.50067041  0.50096658  0.61238322
   0.33217988  0.16597446  0.50024823
   0.33337148  0.66692180  0.50004068
   0.83380358  0.16606569  0.50027525
   0.83400107  0.66791725  0.50015363
   0.16668157  0.33337174  0.47102608
   0.16663906  0.83332134  0.47105804
   0.66668734  0.33338603  0.47121156
   0.66666470  0.83331677  0.47103531
  -0.00000109  0.00001215  0.35892239
   0.00007543  0.50002813  0.35894825
   0.49997014 -0.00007184  0.35895000
   0.49995672  0.50003603  0.35894130
   0.33063802  0.16527222  0.58452181
   0.33363706  0.66886691  0.58294809
   0.83465595  0.16549574  0.58461704
   0.83494894  0.66981496  0.58443895
  -0.00005915  0.00006955  0.52953175
  -0.00074177  0.49974192  0.52861051
   0.50047738  0.00096761  0.52861445
   0.50037865  0.49979307  0.52860626
   0.33292490  0.16646766  0.41601555
   0.33333662  0.66666604  0.41586646
   0.83353494  0.16646418  0.41599822
   0.83353412  0.66707850  0.41602821
   0.16993406  0.33950297  0.64078977
   0.16658642  0.83376380  0.64160108
   0.66685066  0.33309366  0.64138643
   0.66435773  0.83234174  0.64123931
  -0.00340905  0.03470399  0.72305504
   0.00131679  0.06366558  0.76264502
Direct configuration=    21
   0.16669621  0.33334514  0.38741288
   0.16665395  0.83333444  0.38741797
   0.66665352  0.33335959  0.38767808
   0.66666209  0.83330161  0.38740867
  -0.00007486  0.00082637  0.61418957
   0.00007352  0.50127303  0.61215057
   0.49965661  0.00032780  0.61226208
   0.50065990  0.50077454  0.61213095