CeO2                                    
           1
     7.707464    0.000000    0.000000
    -3.853732    6.674860    0.000000
     0.000000    0.000000   28.319031
   Ce   O    C    O 
  12  24   1   1
Direct configuration=     1
   0.16666700  0.33333300  0.38888900
   0.16666700  0.83333300  0.38888900
   0.66666700  0.33333300  0.38888900
   0.66666700  0.83333300  0.38888900
   0.00000000  0.00000000  0.61111100
   0.00000000  0.50000000  0.61111100
   0.50000000  0.00000000  0.61111100
   0.50000000  0.50000000  0.61111100
   0.33333300  0.16666700  0.50000000
   0.33333300  0.66666700  0.50000000
   0.83333300  0.16666700  0.50000000
   0.83333300  0.66666700  0.50000000
   0.16666700  0.33333300  0.47222200
   0.16666700  0.83333300  0.47222200
   0.66666700  0.33333300  0.47222200
   0.66666700  0.83333300  0.47222200
   0.00000000  0.00000000  0.36111100
   0.00000000  0.50000000  0.36111100
   0.50000000  0.00000000  0.36111100
   0.50000000  0.50000000  0.36111100
   0.33333300  0.16666700  0.58333300
   0.33333300  0.66666700  0.58333300
   0.83333300  0.16666700  0.58333300
   0.83333300  0.66666700  0.58333300
   0.00000000  0.00000000  0.52777800
   0.00000000  0.50000000  0.52777800
   0.50000000  0.00000000  0.52777800
   0.50000000  0.50000000  0.52777800
   0.33333300  0.16666700  0.41666700
   0.33333300  0.66666700  0.41666700
   0.83333300  0.16666700  0.41666700
   0.83333300  0.66666700  0.41666700
   0.16666700  0.33333300  0.63888900
   0.16666700  0.83333300  0.63888900
   0.66666700  0.33333300  0.63888900
   0.66666700  0.83333300  0.63888900
   0.22222200  0.22222200  0.72389500
   0.30776700  0.39331200  0.72389500
Direct configuration=     2
   0.16666534  0.33333047  0.38860432
   0.16666393  0.83333318  0.38860519
   0.66666778  0.33333459  0.38860524
   0.66667026  0.83333372  0.38860534
  -0.00039791 -0.00072844  0.61138423
  -0.00002781  0.50026949  0.61130839
   0.49988872 -0.00026005  0.61140450
   0.50069840  0.50067254  0.61125930
   0.33331890  0.16665564  0.49999553
   0.33332453  0.66666404  0.50000203
   0.83334171  0.16666689  0.50000524
   0.83334624  0.66667779  0.50001009
   0.16667029  0.33333471  0.47179384
   0.16666837  0.83333335  0.47179483
   0.66666500  0.33333330  0.47179529
   0.66666400  0.83333119  0.47179645
   0.00000876  0.00000733  0.36090538
   0.00000031  0.49999719  0.36090598
   0.49999730  0.00000458  0.36090512
   0.49999398  0.49999091  0.36090552
   0.33337573  0.16675478  0.58313782
   0.33333869  0.66657300  0.58312931
   0.83328412  0.16666671  0.58312512
   0.83326473  0.66658291  0.58311443
   0.00000421 -0.00000028  0.52819909
  -0.00000224  0.50000309  0.52820798
   0.49999574  0.00000221  0.52820138
   0.50000477  0.50000098  0.52821924
   0.33333292  0.16666901  0.41688383
   0.33332527  0.66666006  0.41688419
   0.83333955  0.16667512  0.41688392
   0.83333570  0.66666250  0.41688379
   0.16484293  0.33285886  0.63809947
   0.16674787  0.83316593  0.63898179
   0.66655190  0.33329155  0.63912187
   0.66664903  0.83335088  0.63903146
   0.22113479  0.22070397  0.72401154
   0.31063519  0.39563032  0.72508197
Direct configuration=     3
   0.16666557  0.33333081  0.38864270
   0.16666435  0.83333315  0.38864345
   0.66666768  0.33333437  0.38864350
   0.66666982  0.83333362  0.38864358
  -0.00034426 -0.00063023  0.61134739
  -0.00002406  0.50023315  0.61128177
   0.49990372 -0.00022499  0.61136492
   0.50060423  0.50058186  0.61123930
   0.33332080  0.16665717  0.49999614
   0.33332567  0.66666444  0.50000175
   0.83334053  0.16666690  0.50000453
   0.83334446  0.66667633  0.50000873
   0.16666984  0.33333448  0.47185157
   0.16666819  0.83333330  0.47185242
   0.66666527  0.33333326  0.47185282
   0.66666440  0.83333144  0.47185383
   0.00000758  0.00000634  0.36093310
   0.00000027  0.49999757  0.36093362
   0.49999766  0.00000397  0.36093288
   0.49999479  0.49999214  0.36093323
   0.33336997  0.16674294  0.58316414
   0.33333793  0.66658568  0.58315678
   0.83329071  0.16666675  0.58315315
   0.83327394  0.66659425  0.58314390
   0.00000364 -0.00000024  0.52814231
  -0.00000193  0.50000267  0.52815001
   0.49999631  0.00000191  0.52814430
   0.50000412  0.50000084  0.52815975
   0.33333293  0.16666874  0.41685459
   0.33332631  0.66666100  0.41685491
   0.83333867  0.16667403  0.41685467
   0.83333534  0.66666310  0.41685456
   0.16508888  0.33292279  0.63820593
   0.16673697  0.83318846  0.63896928
   0.66656742  0.33329714  0.63909048
   0.66665145  0.83334847  0.63901225
   0.22128138  0.22090865  0.72399582
   0.31024847  0.39531773  0.72492193
Direct configuration=     4
   0.16666517  0.33333043  0.38859202
   0.16666393  0.83333314  0.38859287
   0.66666789  0.33333453  0.38859297
   0.66667032  0.83333387  0.38859308
  -0.00041317 -0.00075314  0.61139426
  -0.00003463  0.50027104  0.61131571
   0.49988699 -0.00026393  0.61141631
   0.50072421  0.50069476  0.61126436
   0.33331781  0.16665364  0.49999634
   0.33332413  0.66666519  0.50000204
   0.83334129  0.16666613  0.50000659
   0.83334802  0.66667912  0.50000882
   0.16667116  0.33333538  0.47177280
   0.16666793  0.83333288  0.47177381
   0.66666494  0.33333429  0.47177432
   0.66666360  0.83333004  0.47177549
   0.00000889  0.00000737  0.36089254
   0.00000033  0.49999722  0.36089314
   0.49999722  0.00000461  0.36089229
   0.49999393  0.49999082  0.36089269
   0.33338113  0.16675762  0.58313180
   0.33334608  0.66657557  0.58312213
   0.83326814  0.16665792  0.58311696
   0.83325857  0.66657903  0.58310677
   0.00000322 -0.00000349  0.52821966
  -0.00000219  0.50000554  0.52822842
   0.49999401  0.00000067  0.52822196
   0.50000755  0.50000328  0.52824070
   0.33333291  0.16666890  0.41689053
   0.33332525  0.66666011  0.41689093
   0.83333956  0.16667511  0.41689055
   0.83333579  0.66666255  0.41689058
   0.16475448  0.33283262  0.63806421
   0.16675204  0.83315773  0.63898909
   0.66654380  0.33329091  0.63913601
   0.66664754  0.83334869  0.63904133
   0.22135180  0.22117222  0.72401901
   0.31051935  0.39521163  0.72514691
Direct configuration=     5
   0.16666398  0.33332929  0.38843995
   0.16666269  0.83333309  0.38844111
   0.66666854  0.33333500  0.38844138
   0.66667180  0.83333464  0.38844156
  -0.00061990 -0.00112187  0.61153489
  -0.00006635  0.50038471  0.61141754
   0.49983681 -0.00038077  0.61157048
   0.50108413  0.50103346  0.61133952
   0.33330885  0.16664304  0.49999694
   0.33331950  0.66666742  0.50000292
   0.83334354  0.16666381  0.50001275
   0.83335869  0.66668749  0.50000910
   0.16667511  0.33333811  0.47153649
   0.16666717  0.83333160  0.47153796
   0.66666397  0.33333739  0.47153882
   0.66666118  0.83332584  0.47154045
   0.00001281  0.00001048  0.36077084
   0.00000053  0.49999617  0.36077168
   0.49999589  0.00000656  0.36077054
   0.49999136  0.49998687  0.36077107
   0.33341461  0.16680165  0.58303478
   0.33337056  0.66654526  0.58301821
   0.83320043  0.16663143  0.58300841
   0.83321246  0.66653337  0.58299537
   0.00000198 -0.00001322  0.52845172
  -0.00000295  0.50001413  0.52846366
   0.49998709 -0.00000305  0.52845496
   0.50001783  0.50001060  0.52848356
   0.33333282  0.16666939  0.41699834
   0.33332207  0.66665743  0.41699898
   0.83334225  0.16667834  0.41699819
   0.83333714  0.66666087  0.41699865
   0.16375129  0.33256213  0.63763906
   0.16679725  0.83306555  0.63904855
   0.66647297  0.33327222  0.63927261
   0.66663581  0.83334934  0.63912854
   0.22156306  0.22196290  0.72408855
   0.31133202  0.39489334  0.72582187
Direct configuration=     6
   0.16666161  0.33332699  0.38813583
   0.16666020  0.83333298  0.38813760
   0.66666982  0.33333594  0.38813819
   0.66667477  0.83333616  0.38813853
  -0.00103337 -0.00185933  0.61181615
  -0.00012978  0.50061205  0.61162118
   0.49973644 -0.00061443  0.61187882
   0.50180398  0.50171087  0.61148985
   0.33329094  0.16662185  0.49999815
   0.33331025  0.66667189  0.50000466
   0.83334806  0.16665916  0.50002508
   0.83338003  0.66670424  0.50000966
   0.16668302  0.33334355  0.47106386
   0.16666563  0.83332905  0.47106627
   0.66666202  0.33334358  0.47106782
   0.66665635  0.83331744  0.47107039
   0.00002065  0.00001669  0.36052744
   0.00000094  0.49999407  0.36052878
   0.49999323  0.00001044  0.36052702
   0.49998622  0.49997898  0.36052783
   0.33348157  0.16688970  0.58284073
   0.33341951  0.66648465  0.58281035
   0.83306502  0.16657845  0.58279132
   0.83312024  0.66644205  0.58277257
  -0.00000051 -0.00003268  0.52891582
  -0.00000446  0.50003132  0.52893413
   0.49997325 -0.00001048  0.52892095
   0.50003839  0.50002523  0.52896927
   0.33333266  0.16667037  0.41721397
   0.33331572  0.66665207  0.41721509
   0.83334762  0.16668481  0.41721346
   0.83333985  0.66665753  0.41721479
   0.16174491  0.33202114  0.63678877
   0.16688768  0.83288118  0.63916747
   0.66633130  0.33323484  0.63954582
   0.66661234  0.83335066  0.63930296
   0.22198557  0.22354427  0.72422764
   0.31295734  0.39425674  0.72717179
Direct configuration=     7
   0.16666185  0.33332722  0.38816636
   0.16666045  0.83333299  0.38816807
   0.66666969  0.33333584  0.38816863
   0.66667447  0.83333601  0.38816895
  -0.00099186 -0.00178530  0.61178792
  -0.00012341  0.50058923  0.61160074
   0.49974652 -0.00059098  0.61184787
   0.50173172  0.50164287  0.61147476
   0.33329274  0.16662398  0.49999802
   0.33331118  0.66667144  0.50000449
   0.83334761  0.16665963  0.50002384
   0.83337789  0.66670255  0.50000960
   0.16668222  0.33334300  0.47111131
   0.16666579  0.83332931  0.47111362
   0.66666222  0.33334296  0.47111510
   0.66665684  0.83331828  0.47111757
   0.00001986  0.00001607  0.36055187
   0.00000090  0.49999428  0.36055316
   0.49999350  0.00001005  0.36055146
   0.49998673  0.49997977  0.36055225
   0.33347484  0.16688086  0.58286021
   0.33341460  0.66649073  0.58283121
   0.83307861  0.16658377  0.58281311
   0.83312950  0.66645122  0.58279494
  -0.00000026 -0.00003072  0.52886923
  -0.00000431  0.50002959  0.52888690
   0.49997464 -0.00000974  0.52887417
   0.50003633  0.50002376  0.52892051
   0.33333267  0.16667027  0.41719232
   0.33331636  0.66665261  0.41719340
   0.83334708  0.16668417  0.41719185
   0.83333958  0.66665787  0.41719309
   0.16194632  0.33207545  0.63687412
   0.16687860  0.83289969  0.63915553
   0.66634552  0.33323860  0.63951840
   0.66661470  0.83335053  0.63928545
   0.22194316  0.22338553  0.72421367
   0.31279418  0.39432065  0.72703628
Direct configuration=     8
   0.16666101  0.33332726  0.38817212
   0.16666133  0.83333312  0.38817340
   0.66666998  0.33333479  0.38817443
   0.66667421  0.83333723  0.38817475
  -0.00096442 -0.00172046  0.61177080
  -0.00016321  0.50051842  0.61158489
   0.49976466 -0.00053581  0.61183396
   0.50168517  0.50158067  0.61145516
   0.33329042  0.16661402  0.50000519
   0.33331149  0.66668090  0.50000448
   0.83334029  0.16665394  0.50003189
   0.83338616  0.66670797  0.49999766
   0.16668734  0.33334685  0.47109818
   0.16666169  0.83332588  0.47110027
   0.66666261  0.33334999  0.47110216
   0.66665542  0.83331098  0.47110441
   0.00001886  0.00001477  0.36052378
   0.00000094  0.49999521  0.36052500
   0.49999342  0.00000931  0.36052346
   0.49998780  0.49998112  0.36052422
   0.33350259  0.16687443  0.58288006
   0.33347146  0.66654375  0.58284554
   0.83296872  0.16651459  0.58282038
   0.83310408  0.66644952  0.58281079
  -0.00000976 -0.00005569  0.52888098
  -0.00000505  0.50004644  0.52889428
   0.49996331 -0.00002100  0.52888503
   0.50005680  0.50004038  0.52893196
   0.33333236  0.16666930  0.41716947
   0.33331731  0.66665397  0.41717063
   0.83334622  0.16668282  0.41716859
   0.83333984  0.66665900  0.41717081
   0.16190591  0.33206285  0.63686670
   0.16688144  0.83288743  0.63917861
   0.66632162  0.33325212  0.63954869
   0.66660521  0.83332099  0.63931355
   0.22192749  0.22345391  0.72421989
   0.31297428  0.39433303  0.72715384
Direct configuration=     9
   0.16665850  0.33332737  0.38818941
   0.16666396  0.83333348  0.38818940
   0.66667085  0.33333162  0.38819184
   0.66667344  0.83334091  0.38819215
  -0.00088210 -0.00152595  0.61171944
  -0.00028261  0.50030600  0.61153732
   0.49981908 -0.00037031  0.61179225
   0.50154555  0.50139406  0.61139637
   0.33328346  0.16658417  0.50002670
   0.33331242  0.66670930  0.50000444
   0.83331834  0.16663687  0.50005601
   0.83341097  0.66672420  0.49996181
   0.16670269  0.33335839  0.47105880
   0.16664942  0.83331562  0.47106022
   0.66666376  0.33337106  0.47106331
   0.66665117  0.83328910  0.47106494
   0.00001584  0.00001086  0.36043952
   0.00000108  0.49999800  0.36044051
   0.49999320  0.00000710  0.36043943
   0.49999099  0.49998518  0.36044016
   0.33358581  0.16685512  0.58293960
   0.33364205  0.66670280  0.58288853
   0.83263905  0.16630705  0.58284218
   0.83302783  0.66644442  0.58285834
  -0.00003825 -0.00013060  0.52891622
  -0.00000725  0.50009699  0.52891642
   0.49992931 -0.00005478  0.52891760
   0.50011821  0.50009024  0.52896630
   0.33333141  0.16666639  0.41710091
   0.33332016  0.66665806  0.41710234
   0.83334362  0.16667880  0.41709882
   0.83334063  0.66666241  0.41710395
   0.16178470  0.33202506  0.63684443
   0.16688994  0.83285065  0.63924783
   0.66624993  0.33329271  0.63963957
   0.66657676  0.83323240  0.63939784
   0.22188049  0.22365908  0.72423854
   0.31351459  0.39437016  0.72750655
Direct configuration=    10
   0.16665347  0.33332758  0.38822400
   0.16666921  0.83333422  0.38822141
   0.66667259  0.33332527  0.38822665
   0.66667189  0.83334827  0.38822695
  -0.00071746 -0.00113692  0.61161672
  -0.00052141  0.49988115  0.61144219
   0.49992793 -0.00003930  0.61170883
   0.50126629  0.50102086  0.61127880
   0.33326955  0.16652445  0.50006971
   0.33331427  0.66676609  0.50000437
   0.83327444  0.16660273  0.50010426
   0.83346060  0.66675667  0.49989012
   0.16673340  0.33338147  0.47098005
   0.16662487  0.83329509  0.47098011
   0.66666608  0.33341320  0.47098563
   0.66664268  0.83324533  0.47098599
   0.00000980  0.00000304  0.36027100
   0.00000135  0.50000357  0.36027153
   0.49999276  0.00000268  0.36027139
   0.49999738  0.49999329  0.36027202
   0.33375227  0.16681652  0.58305870
   0.33398324  0.66702091  0.58297449
   0.83197972  0.16589198  0.58288579
   0.83287534  0.66643422  0.58295345
  -0.00009523 -0.00028041  0.52898670
  -0.00001167  0.50019809  0.52896069
   0.49986131 -0.00012234  0.52898274
   0.50024104  0.50018996  0.52903499
   0.33332952  0.16666057  0.41696378
   0.33332587  0.66666624  0.41696576
   0.83333843  0.16667076  0.41695927
   0.83334221  0.66666924  0.41697024
   0.16154228  0.33194948  0.63679990
   0.16690693  0.83277709  0.63938628
   0.66610654  0.33337388  0.63982132
   0.66651986  0.83305522  0.63956642
   0.22178648  0.22406940  0.72427583
   0.31459519  0.39444444  0.72821195
Direct configuration=    11
   0.16664341  0.33332802  0.38829317
   0.16667973  0.83333569  0.38828542
   0.66667607  0.33331259  0.38829628
   0.66666879  0.83336298  0.38829655
  -0.00038818 -0.00035886  0.61141128
  -0.00099902  0.49903146  0.61125193
   0.50014562  0.00062270  0.61154198
   0.50070778  0.50027445  0.61104364
   0.33324173  0.16640503  0.50015573
   0.33331798  0.66687968  0.50000422
   0.83318663  0.16653445  0.50020076
   0.83355985  0.66682161  0.49974673
   0.16679481  0.33342764  0.47082254
   0.16657576  0.83325403  0.47081990
   0.66667071  0.33349748  0.47083026
   0.66662568  0.83315778  0.47082808
  -0.00000228 -0.00001259  0.35993395
   0.00000190  0.50001472  0.35993358
   0.49999187 -0.00000618  0.35993530
   0.50001015  0.50000950  0.35993576
   0.33408518  0.16673930  0.58329689
   0.33466561  0.66765713  0.58314643
   0.83066105  0.16506184  0.58297301
   0.83257034  0.66641383  0.58314365
  -0.00020920 -0.00058004  0.52912766
  -0.00002049  0.50040029  0.52904922
   0.49972531 -0.00025745  0.52911302
   0.50048670  0.50038941  0.52917236
   0.33332573  0.16664894  0.41668953
   0.33333728  0.66668260  0.41669260
   0.83332806  0.16665468  0.41668017
   0.83334537  0.66668288  0.41670282
   0.16105743  0.33179831  0.63671083
   0.16694093  0.83262997  0.63966318
   0.66581976  0.33353621  0.64018483
   0.66640607  0.83270086  0.63990357
   0.22159847  0.22489006  0.72435042
   0.31675640  0.39459299  0.72962276
Direct configuration=    12
   0.16664012  0.33332082  0.38824879
   0.16669950  0.83335121  0.38823334
   0.66666423  0.33328958  0.38824895
   0.66666437  0.83337799  0.38824733
  -0.00044784 -0.00041069  0.61143476
  -0.00110045  0.49902721  0.61126004
   0.50010655  0.00061086  0.61158625
   0.50071128  0.50028184  0.61105277
   0.33325264  0.16640290  0.50015022
   0.33333340  0.66689646  0.50000135
   0.83315362  0.16651460  0.50019118
   0.83355516  0.66681884  0.49971846
   0.16680115  0.33342252  0.47084364
   0.16657473  0.83326065  0.47083127
   0.66666232  0.33349772  0.47084640
   0.66662749  0.83315458  0.47084077
  -0.00000686 -0.00002099  0.35986614
   0.00000115  0.50002053  0.35986575
   0.49999043 -0.00000965  0.35986720
   0.50001683  0.50001572  0.35986859
   0.33415193  0.16672424  0.58333075
   0.33479314  0.66778631  0.58316387
   0.83034604  0.16488733  0.58297289
   0.83251051  0.66639186  0.58316808
  -0.00020290 -0.00060132  0.52911087
  -0.00002624  0.50041118  0.52902280
   0.49967721 -0.00026474  0.52907932
   0.50050907  0.50038857  0.52914430
   0.33332436  0.16664082  0.41664022
   0.33333938  0.66669115  0.41663953
   0.83332251  0.16664942  0.41662982
   0.83334993  0.66668783  0.41664768
   0.16101543  0.33177777  0.63673050
   0.16691992  0.83258698  0.63970649
   0.66577005  0.33357780  0.64025443
   0.66641054  0.83263502  0.63996620
   0.22154014  0.22513671  0.72436912
   0.31733814  0.39460435  0.73000990
Direct configuration=    13
   0.16663027  0.33329922  0.38811566
   0.16675883  0.83339776  0.38807710
   0.66662869  0.33322056  0.38810696
   0.66665111  0.83342302  0.38809967
  -0.00062681 -0.00056618  0.61150520
  -0.00140477  0.49901445  0.61128440
   0.49998935  0.00057535  0.61171906
   0.50072178  0.50030401  0.61108016
   0.33328536  0.16639653  0.50013369
   0.33337965  0.66694680  0.49999275
   0.83305461  0.16645505  0.50016246
   0.83354109  0.66681055  0.49963365
   0.16682018  0.33340718  0.47090694
   0.16657164  0.83328053  0.47086537
   0.66663717  0.33349842  0.47089484
   0.66663292  0.83314495  0.47087882
  -0.00002062 -0.00004619  0.35966269
  -0.00000112  0.50003795  0.35966227
   0.49998613 -0.00002009  0.35966292
   0.50003688  0.50003437  0.35966710
   0.33435216  0.16667904  0.58343234
   0.33517573  0.66817384  0.58321619
   0.82940103  0.16436379  0.58297254
   0.83233100  0.66632595  0.58324137
  -0.00018399 -0.00066515  0.52906052
  -0.00004351  0.50044386  0.52894352
   0.49953291 -0.00028661  0.52897822
   0.50057617  0.50038607  0.52906013
   0.33332025  0.16661648  0.41649231
   0.33334568  0.66671681  0.41648035
   0.83330586  0.16663363  0.41647877
   0.83336360  0.66670269  0.41648226
   0.16088945  0.33171615  0.63678953
   0.16685688  0.83245800  0.63983641
   0.66562094  0.33370256  0.64046322
   0.66642394  0.83243751  0.64015407
   0.22136518  0.22587666  0.72442523
   0.31908337  0.39463846  0.73117133
Direct configuration=    14
   0.16661055  0.33325601  0.38784939
   0.16687749  0.83349085  0.38776462
   0.66655762  0.33308252  0.38782298
   0.66662459  0.83351308  0.38780434
  -0.00098476 -0.00087716  0.61164607
  -0.00201340  0.49898892  0.61133310
   0.49975493  0.00050431  0.61198470
   0.50074278  0.50034835  0.61113494
   0.33335079  0.16638378  0.50010063
   0.33347214  0.66704748  0.49997555
   0.83285659  0.16633596  0.50010500
   0.83351295  0.66679396  0.49946402
   0.16685825  0.33337649  0.47103356
   0.16656545  0.83332030  0.47093357
   0.66658685  0.33349982  0.47099170
   0.66664379  0.83312569  0.47095493
  -0.00004812 -0.00009658  0.35925578
  -0.00000564  0.50007280  0.35925532
   0.49997753 -0.00004096  0.35925436
   0.50007697  0.50007166  0.35926410
   0.33475264  0.16658864  0.58363553
   0.33594092  0.66894890  0.58332084
   0.82751100  0.16331670  0.58297183
   0.83197198  0.66619413  0.58338794
  -0.00014617 -0.00079280  0.52895980
  -0.00007804  0.50050922  0.52878496
   0.49924430 -0.00033034  0.52877602
   0.50071038  0.50038107  0.52889178
   0.33331203  0.16656780  0.41619648
   0.33335828  0.66676814  0.41616197
   0.83327256  0.16660206  0.41617668
   0.83339094  0.66673241  0.41615141
   0.16063749  0.33159290  0.63690759
   0.16673080  0.83220005  0.64009626
   0.66532271  0.33395208  0.64088080
   0.66645076  0.83204250  0.64052981
   0.22101524  0.22735658  0.72453745
   0.32257382  0.39470667  0.73349418
Direct configuration=    15
   0.16662192  0.33325871  0.38770964
   0.16690258  0.83350565  0.38760553
   0.66653676  0.33306221  0.38766988
   0.66660739  0.83351375  0.38764612
  -0.00125391 -0.00125261  0.61178205
  -0.00211517  0.49923992  0.61141696
   0.49955033  0.00023561  0.61215075
   0.50091532  0.50060706  0.61124635
   0.33337279  0.16638924  0.50006216
   0.33351523  0.66707643  0.49996307
   0.83277301  0.16627992  0.50004808
   0.83348226  0.66678467  0.49943651
   0.16683992  0.33334400  0.47110032
   0.16656182  0.83333738  0.47097197
   0.66657682  0.33347664  0.47103983
   0.66666107  0.83315181  0.47099872
  -0.00005185 -0.00009982  0.35916771
  -0.00001190  0.50007066  0.35916883
   0.49998094 -0.00003735  0.35916248
   0.50008185  0.50007200  0.35917922
   0.33477794  0.16655946  0.58364870
   0.33598829  0.66903672  0.58331347
   0.82719011  0.16318897  0.58295784
   0.83193903  0.66614002  0.58338606
  -0.00009879 -0.00074266  0.52889805
  -0.00009351  0.50046220  0.52871832
   0.49912487 -0.00031876  0.52865606
   0.50067976  0.50030824  0.52879204
   0.33331565  0.16655618  0.41614077
   0.33336136  0.66678256  0.41609976
   0.83325811  0.16659521  0.41612212
   0.83339493  0.66673378  0.41608120
   0.16063838  0.33160786  0.63700203
   0.16658758  0.83207120  0.64012388
   0.66533911  0.33404503  0.64095367
   0.66653578  0.83199365  0.64059728
   0.22167412  0.22911168  0.72464142
   0.32282913  0.39338676  0.73413115
Direct configuration=    16
   0.16662131  0.33325857  0.38771709
   0.16690124  0.83350486  0.38761401
   0.66653787  0.33306329  0.38767804
   0.66660831  0.83351371  0.38765455
  -0.00123956 -0.00123259  0.61177480
  -0.00210975  0.49922654  0.61141249
   0.49956124  0.00024993  0.61214190
   0.50090612  0.50059327  0.61124041
   0.33337162  0.16638895  0.50006421
   0.33351293  0.66707488  0.49996373
   0.83277747  0.16628291  0.50005111
   0.83348390  0.66678517  0.49943797
   0.16684090  0.33334574  0.47109676
   0.16656201  0.83333647  0.47096992
   0.66657736  0.33347787  0.47103726
   0.66666014  0.83315041  0.47099639
  -0.00005165 -0.00009964  0.35917241
  -0.00001156  0.50007077  0.35917344
   0.49998076 -0.00003754  0.35916737
   0.50008159  0.50007198  0.35918374
   0.33477659  0.16656101  0.58364800
   0.33598577  0.66903204  0.58331386
   0.82720721  0.16319578  0.58295859
   0.83194079  0.66614291  0.58338616
  -0.00010131 -0.00074533  0.52890135
  -0.00009268  0.50046471  0.52872187
   0.49913123 -0.00031937  0.52866245
   0.50068139  0.50031212  0.52879735
   0.33331545  0.16655680  0.41614374
   0.33336119  0.66678179  0.41610308
   0.83325888  0.16659558  0.41612503
   0.83339472  0.66673371  0.41608495
   0.16063834  0.33160706  0.63699700
   0.16659521  0.83207807  0.64012241
   0.66533824  0.33404007  0.64094979
   0.66653125  0.83199626  0.64059368
   0.22163899  0.22901812  0.72463588
   0.32281552  0.39345713  0.73409719
Direct configuration=    17
   0.16664573  0.33327521  0.38755769
   0.16691100  0.83350445  0.38743324
   0.66652328  0.33306729  0.38749955
   0.66658753  0.83349114  0.38747010
  -0.00156940 -0.00171972  0.61195719
  -0.00214550  0.49959928  0.61152958
   0.49928896 -0.00014318  0.61233790
   0.50114442  0.50096102  0.61139908
   0.33338614  0.16639534  0.50001117
   0.33355748  0.66709967  0.49994434
   0.83268666  0.16621809  0.49997349
   0.83344670  0.66677802  0.49942781
   0.16680051  0.33330186  0.47116599
   0.16654996  0.83334840  0.47100588
   0.66657839  0.33344590  0.47108216
   0.66668748  0.83319542  0.47104010
  -0.00005050 -0.00009061  0.35911154
  -0.00002034  0.50005746  0.35911538
   0.49999019 -0.00002549  0.35910001
   0.50007919  0.50006306  0.35912722
   0.33472589  0.16652928  0.58363427
   0.33589474  0.66900647  0.58328734
   0.82710022  0.16321630  0.58294647
   0.83196530  0.66608709  0.58335718
  -0.00003980 -0.00064274  0.52883141
  -0.00010944  0.50037834  0.52865600
   0.49899209 -0.00029942  0.52851713
   0.50060712  0.50020235  0.52867987
   0.33332471  0.16655095  0.41610761
   0.33336493  0.66679330  0.41606273
   0.83324305  0.16659173  0.41609252
   0.83339354  0.66672855  0.41603427
   0.16070456  0.33168333  0.63713238
   0.16637340  0.83191024  0.64011593
   0.66543740  0.33414852  0.64098229
   0.66666385  0.83199556  0.64062857
   0.22154699  0.22953376  0.72467481
   0.32372258  0.39329778  0.73475980
Direct configuration=    18
   0.16667860  0.33329760  0.38734312
   0.16692413  0.83350388  0.38718988
   0.66650364  0.33307267  0.38725926
   0.66655956  0.83346075  0.38722179
  -0.00201343 -0.00237550  0.61220272
  -0.00219363  0.50010106  0.61168720
   0.49892241 -0.00067239  0.61260177
   0.50146521  0.50145610  0.61161268
   0.33340569  0.16640394  0.49993977
   0.33361744  0.66713304  0.49991824
   0.83256442  0.16613084  0.49986899
   0.83339663  0.66676840  0.49941412
   0.16674613  0.33324281  0.47125919
   0.16653373  0.83336446  0.47105429
   0.66657978  0.33340285  0.47114261
   0.66672428  0.83325600  0.47109894
  -0.00004895 -0.00007845  0.35902960
  -0.00003216  0.50003955  0.35903722
   0.50000289 -0.00000928  0.35900931
   0.50007597  0.50005106  0.35905112
   0.33465764  0.16648656  0.58361578
   0.33577219  0.66897204  0.58325164
   0.82695618  0.16324393  0.58293015
   0.83199831  0.66601195  0.58331817
   0.00004302 -0.00050464  0.52873725
  -0.00013200  0.50026208  0.52856732
   0.49880478 -0.00027255  0.52832149
   0.50050714  0.50005456  0.52852172
   0.33333717  0.16654308  0.41605897
   0.33336997  0.66680878  0.41600842
   0.83322174  0.16658655  0.41604876
   0.83339197  0.66672161  0.41596605
   0.16079372  0.33178600  0.63731464
   0.16607479  0.83168431  0.64010720
   0.66557089  0.33429451  0.64102605
   0.66684236  0.83199462  0.64067554
   0.22142314  0.23022793  0.72472723
   0.32494367  0.39308328  0.73565180
Direct configuration=    19
   0.16668655  0.33331100  0.38737116
   0.16689310  0.83347854  0.38721535
   0.66652035  0.33311016  0.38727902
   0.66656369  0.83343328  0.38723951
  -0.00193730 -0.00221562  0.61218323
  -0.00218433  0.49999455  0.61166608
   0.49893859 -0.00061288  0.61254683
   0.50135474  0.50133403  0.61160102
   0.33336712  0.16638196  0.49993709
   0.33358807  0.66712240  0.49989877
   0.83256617  0.16612840  0.49986442
   0.83341759  0.66678340  0.49941421
   0.16671807  0.33324259  0.47121939
   0.16649221  0.83332811  0.47101173
   0.66661055  0.33342009  0.47109678
   0.66673321  0.83325865  0.47106036
  -0.00004406 -0.00006096  0.35902210
  -0.00003375  0.50002345  0.35903104
   0.50001074 -0.00000067  0.35899694
   0.50006355  0.50003987  0.35904437
   0.33458353  0.16645917  0.58363513
   0.33567283  0.66890245  0.58327272
   0.82710509  0.16333739  0.58297441
   0.83203371  0.66602810  0.58332298
   0.00001768 -0.00050083  0.52876002
  -0.00013210  0.50025179  0.52859278
   0.49876469 -0.00030261  0.52832259
   0.50049158  0.50005960  0.52853529
   0.33334492  0.16655381  0.41603161
   0.33337540  0.66680380  0.41598760
   0.83321738  0.16658598  0.41602395
   0.83337767  0.66671238  0.41594268
   0.16089589  0.33189300  0.63739809
   0.16595713  0.83161191  0.64010495
   0.66565270  0.33434023  0.64101188
   0.66687387  0.83200778  0.64067778
   0.22099796  0.22967678  0.72470405
   0.32543421  0.39361293  0.73579211
Direct configuration=    20
   0.16668440  0.33330738  0.38736359
   0.16690147  0.83348538  0.38720848
   0.66651584  0.33310004  0.38727368
   0.66656257  0.83344069  0.38723473
  -0.00195785 -0.00225877  0.61218849
  -0.00218684  0.50002330  0.61167178
   0.49893422 -0.00062894  0.61256165
   0.50138455  0.50136698  0.61160417
   0.33337753  0.16638789  0.49993781
   0.33359600  0.66712527  0.49990403
   0.83256570  0.16612906  0.49986565
   0.83341193  0.66677935  0.49941419
   0.16672564  0.33324265  0.47123013
   0.16650342  0.83333792  0.47102321
   0.66660224  0.33341544  0.47110915
   0.66673080  0.83325793  0.47107077
  -0.00004538 -0.00006568  0.35902412
  -0.00003332  0.50002779  0.35903271
   0.50000862 -0.00000299  0.35900028
   0.50006691  0.50004289  0.35904619
   0.33460353  0.16646657  0.58362991
   0.33569965  0.66892123  0.58326703
   0.82706490  0.16331217  0.58296246
   0.83202416  0.66602375  0.58332168
   0.00002452 -0.00050186  0.52875387
  -0.00013207  0.50025457  0.52858591
   0.49877551 -0.00029450  0.52832230
   0.50049578  0.50005824  0.52853163
   0.33334283  0.16655091  0.41603900
   0.33337393  0.66680514  0.41599322
   0.83321855  0.16658614  0.41603064
   0.83338153  0.66671487  0.41594899
   0.16086832  0.33186412  0.63737557
   0.16598888  0.83163145  0.64010556
   0.66563062  0.33432789  0.64101570
   0.66686536  0.83200423  0.64067718
   0.22111272  0.22982553  0.72471031
   0.32530182  0.39346998  0.73575425
Direct configuration=    21
   0.16669086  0.33331921  0.38739568
   0.16686928  0.83346015  0.38723843
   0.66653291  0.33313731  0.38729750
   0.66656800  0.83341423  0.38725641
  -0.00187353 -0.00208323  0.61216459
  -0.00217451  0.49990722  0.61164860
   0.49895624 -0.00056091  0.61249739
   0.50126733  0.50123425  0.61159021