CeO2                                    
           1
     7.707464    0.000000    0.000000
    -3.853732    6.674860    0.000000
     0.000000    0.000000   28.319031
   Ce   O    C    O 
  12  24   1   1
Direct configuration=     1
   0.16666700  0.33333300  0.38888900
   0.16666700  0.83333300  0.38888900
   0.66666700  0.33333300  0.38888900
   0.66666700  0.83333300  0.38888900
   0.00000000  0.00000000  0.61111100
   0.00000000  0.50000000  0.61111100
   0.50000000  0.00000000  0.61111100
   0.50000000  0.50000000  0.61111100
   0.33333300  0.16666700  0.50000000
   0.33333300  0.66666700  0.50000000
   0.83333300  0.16666700  0.50000000
   0.83333300  0.66666700  0.50000000
   0.16666700  0.33333300  0.47222200
   0.16666700  0.83333300  0.47222200
   0.66666700  0.33333300  0.47222200
   0.66666700  0.83333300  0.47222200
   0.00000000  0.00000000  0.36111100
   0.00000000  0.50000000  0.36111100
   0.50000000  0.00000000  0.36111100
   0.50000000  0.50000000  0.36111100
   0.33333300  0.16666700  0.58333300
   0.33333300  0.66666700  0.58333300
   0.83333300  0.16666700  0.58333300
   0.83333300  0.66666700  0.58333300
   0.00000000  0.00000000  0.52777800
   0.00000000  0.50000000  0.52777800
   0.50000000  0.00000000  0.52777800
   0.50000000  0.50000000  0.52777800
   0.33333300  0.16666700  0.41666700
   0.33333300  0.66666700  0.41666700
   0.83333300  0.16666700  0.41666700
   0.83333300  0.66666700  0.41666700
   0.16666700  0.33333300  0.63888900
   0.16666700  0.83333300  0.63888900
   0.66666700  0.33333300  0.63888900
   0.66666700  0.83333300  0.63888900
   0.11111100  0.33333300  0.72389500
   0.11111100  0.33333300  0.76422100
Direct configuration=     2
   0.16666675  0.33333368  0.38860095
   0.16666352  0.83333128  0.38859973
   0.66666830  0.33333620  0.38860027
   0.66666750  0.83333096  0.38860073
   0.00014319  0.00013670  0.61117121
   0.00000495  0.49994891  0.61125306
   0.49999526  0.00002327  0.61131060
   0.49971857  0.49978221  0.61117627
   0.33332326  0.16669437  0.50000830
   0.33333286  0.66663190  0.50000333
   0.83336261  0.16667287  0.49999788
   0.83331489  0.66666612  0.49999998
   0.16666120  0.33333339  0.47179176
   0.16666270  0.83332758  0.47179667
   0.66667424  0.33333601  0.47179668
   0.66666922  0.83333544  0.47179650
  -0.00000089  0.00000049  0.36090684
   0.00000229  0.50000040  0.36090654
   0.49999985 -0.00000255  0.36090656
   0.49999882  0.50000226  0.36090676
   0.33340913  0.16647697  0.58313387
   0.33334516  0.66685489  0.58313768
   0.83322665  0.16663887  0.58313976
   0.83336050  0.66668345  0.58313389
  -0.00002678 -0.00002882  0.52821642
  -0.00001545  0.50000861  0.52822122
   0.50000811 -0.00000301  0.52821267
   0.50003337  0.50002517  0.52820350
   0.33333192  0.16666735  0.41688362
   0.33333482  0.66666648  0.41688439
   0.83333409  0.16666481  0.41688472
   0.83333305  0.66666906  0.41688505
   0.16896442  0.33327776  0.63714151
   0.16669485  0.83333961  0.63916549
   0.66668081  0.33325907  0.63916089
   0.66668246  0.83343920  0.63917555
   0.10760791  0.33355483  0.72521502
   0.11238785  0.33325020  0.76519012
Direct configuration=     3
   0.16666640  0.33333465  0.38818540
   0.16665849  0.83332880  0.38818242
   0.66667017  0.33334082  0.38818372
   0.66666823  0.83332803  0.38818486
   0.00034977  0.00033392  0.61125807
   0.00001209  0.49987521  0.61145800
   0.49998841  0.00005685  0.61159854
   0.49931257  0.49946801  0.61127044
   0.33330920  0.16673387  0.50002027
   0.33333266  0.66658126  0.50000813
   0.83340534  0.16668133  0.49999482
   0.83328877  0.66666484  0.49999994
   0.16665284  0.33333395  0.47117107
   0.16665650  0.83331976  0.47118308
   0.66668469  0.33334035  0.47118308
   0.66667242  0.83333896  0.47118265
  -0.00000217  0.00000120  0.36061231
   0.00000559  0.50000098  0.36061157
   0.49999964 -0.00000624  0.36061162
   0.49999712  0.50000552  0.36061212
   0.33351896  0.16620283  0.58284658
   0.33336271  0.66712596  0.58285589
   0.83307323  0.16659829  0.58286099
   0.83340017  0.66670719  0.58284665
  -0.00006541 -0.00007040  0.52884892
  -0.00003774  0.50002103  0.52886064
   0.50001981 -0.00000736  0.52883975
   0.50008152  0.50006149  0.52881735
   0.33333037  0.16666786  0.41719613
   0.33333745  0.66666574  0.41719802
   0.83333567  0.16666166  0.41719880
   0.83333312  0.66667202  0.41719962
   0.17227880  0.33319807  0.63462049
   0.16673503  0.83334916  0.63956438
   0.66670074  0.33315242  0.63955314
   0.66670475  0.83359240  0.63958894
   0.10255418  0.33387485  0.72711935
   0.11422991  0.33313074  0.76658823
Direct configuration=     4
   0.16666700  0.33333480  0.38812703
   0.16665873  0.83332924  0.38812461
   0.66666930  0.33334072  0.38812578
   0.66666765  0.83332744  0.38812672
   0.00035547  0.00028920  0.61125908
  -0.00000379  0.49989499  0.61147963
   0.49998929  0.00005622  0.61164678
   0.49934750  0.49946539  0.61127173
   0.33331552  0.16673177  0.50002521
   0.33333601  0.66658675  0.50001235
   0.83339918  0.16667964  0.49999625
   0.83328596  0.66666210  0.49999954
   0.16664991  0.33333299  0.47106449
   0.16665269  0.83331726  0.47107707
   0.66668841  0.33334291  0.47107695
   0.66667524  0.83333978  0.47107648
  -0.00000264  0.00000110  0.36054741
   0.00000576  0.50000094  0.36054663
   0.49999976 -0.00000664  0.36054666
   0.49999714  0.50000605  0.36054718
   0.33358167  0.16609107  0.58279496
   0.33337750  0.66723933  0.58281328
   0.83301354  0.16658612  0.58282448
   0.83342873  0.66670894  0.58280585
  -0.00007394 -0.00007737  0.52895024
  -0.00004415  0.50002130  0.52896711
   0.50002686 -0.00000709  0.52893947
   0.50008926  0.50006734  0.52891326
   0.33333007  0.16666845  0.41722880
   0.33333783  0.66666504  0.41723079
   0.83333619  0.16666126  0.41723173
   0.83333268  0.66667227  0.41723262
   0.17282556  0.33318201  0.63420080
   0.16673290  0.83333366  0.63964702
   0.66672670  0.33313254  0.63963371
   0.66671517  0.83363646  0.63967258
   0.10143103  0.33395471  0.72722769
   0.11470031  0.33309735  0.76712403
Direct configuration=     5
   0.16666743  0.33333491  0.38808520
   0.16665891  0.83332956  0.38808319
   0.66666868  0.33334065  0.38808425
   0.66666723  0.83332701  0.38808506
   0.00035956  0.00025715  0.61125981
  -0.00001517  0.49990916  0.61149513
   0.49998992  0.00005578  0.61168135
   0.49937253  0.49946351  0.61127265
   0.33332004  0.16673027  0.50002876
   0.33333842  0.66659069  0.50001537
   0.83339477  0.16667842  0.49999727
   0.83328394  0.66666014  0.49999924
   0.16664781  0.33333230  0.47098813
   0.16664995  0.83331547  0.47100110
   0.66669108  0.33334474  0.47100089
   0.66667725  0.83334036  0.47100039
  -0.00000297  0.00000103  0.36050091
   0.00000588  0.50000091  0.36050009
   0.49999985 -0.00000693  0.36050010
   0.49999716  0.50000643  0.36050065
   0.33362660  0.16601099  0.58275796
   0.33338811  0.66732056  0.58278274
   0.83297077  0.16657739  0.58279832
   0.83344919  0.66671019  0.58277662
  -0.00008005 -0.00008236  0.52902286
  -0.00004875  0.50002148  0.52904341
   0.50003191 -0.00000690  0.52901092
   0.50009480  0.50007152  0.52898198
   0.33332986  0.16666887  0.41725221
   0.33333810  0.66666454  0.41725427
   0.83333656  0.16666097  0.41725533
   0.83333236  0.66667245  0.41725626
   0.17321737  0.33317049  0.63390006
   0.16673137  0.83332256  0.63970625
   0.66674530  0.33311829  0.63969144
   0.66672264  0.83366803  0.63973251
   0.10062618  0.33401193  0.72730533
   0.11503740  0.33307343  0.76750798
Direct configuration=     6
   0.16666834  0.33333497  0.38809760
   0.16666076  0.83333076  0.38809664
   0.66666712  0.33333910  0.38809736
   0.66666610  0.83332717  0.38809783
   0.00032153  0.00015043  0.61124201
  -0.00003839  0.49995268  0.61147864
   0.49999343  0.00004787  0.61168328
   0.49951670  0.49953206  0.61125355
   0.33333256  0.16671800  0.50003156
   0.33334359  0.66661052  0.50001887
   0.83337590  0.16667381  0.49999895
   0.83328606  0.66665659  0.49999688
   0.16664545  0.33333103  0.47098244
   0.16664590  0.83331336  0.47099470
   0.66669434  0.33334752  0.47099429
   0.66668048  0.83334070  0.47099382
  -0.00000335  0.00000068  0.36047785
   0.00000534  0.50000070  0.36047708
   0.50000019 -0.00000667  0.36047710
   0.49999768  0.50000652  0.36047758
   0.33369044  0.16591761  0.58275143
   0.33340516  0.66741631  0.58278761
   0.83292374  0.16657027  0.58281091
   0.83347975  0.66670665  0.58278485
  -0.00008444 -0.00008427  0.52901948
  -0.00005343  0.50001948  0.52904569
   0.50004051 -0.00000571  0.52900570
   0.50009647  0.50007263  0.52897556
   0.33333019  0.16666939  0.41722729
   0.33333833  0.66666423  0.41722931
   0.83333646  0.16666094  0.41723046
   0.83333177  0.66667204  0.41723140
   0.17322073  0.33316564  0.63388818
   0.16671637  0.83329664  0.63972974
   0.66677884  0.33311821  0.63971335
   0.66673337  0.83369267  0.63975393
   0.10030493  0.33404513  0.72738565
   0.11517308  0.33306035  0.76757746
Direct configuration=     7
   0.16667107  0.33333517  0.38813478
   0.16666632  0.83333438  0.38813698
   0.66666245  0.33333445  0.38813669
   0.66666271  0.83332763  0.38813614
   0.00020745 -0.00016970  0.61118862
  -0.00010806  0.50008322  0.61142916
   0.50000396  0.00002414  0.61168907
   0.49994921  0.49973770  0.61119626
   0.33337011  0.16668120  0.50003996
   0.33335909  0.66667003  0.50002938
   0.83331928  0.16665999  0.50000398
   0.83329239  0.66664594  0.49998977
   0.16663839  0.33332723  0.47096536
   0.16663372  0.83330700  0.47097548
   0.66670412  0.33335585  0.47097449
   0.66669016  0.83334172  0.47097409
  -0.00000448 -0.00000037  0.36040867
   0.00000372  0.50000007  0.36040806
   0.50000123 -0.00000589  0.36040810
   0.49999924  0.50000678  0.36040837
   0.33388195  0.16563747  0.58273182
   0.33345632  0.66770356  0.58280220
   0.83278265  0.16654888  0.58284867
   0.83357143  0.66669604  0.58280952
  -0.00009762 -0.00008999  0.52900936
  -0.00006745  0.50001349  0.52905252
   0.50006631 -0.00000213  0.52899001
   0.50010146  0.50007597  0.52895631
   0.33333118  0.16667093  0.41715253
   0.33333902  0.66666330  0.41715444
   0.83333613  0.16666085  0.41715587
   0.83333001  0.66667081  0.41715681
   0.17323081  0.33315108  0.63385253
   0.16667138  0.83321887  0.63980022
   0.66687946  0.33311796  0.63977908
   0.66676557  0.83376657  0.63981818
   0.09934120  0.33414470  0.72762662
   0.11558009  0.33302112  0.76778589
Direct configuration=     8
   0.16667652  0.33333557  0.38820913
   0.16667745  0.83334161  0.38821766
   0.66665310  0.33332514  0.38821535
   0.66665592  0.83332854  0.38821277
  -0.00002071 -0.00080998  0.61108183
  -0.00024738  0.50034430  0.61133020
   0.50002501 -0.00002331  0.61170065
   0.50081423  0.50014899  0.61108169
   0.33344520  0.16660760  0.50005678
   0.33339009  0.66678904  0.50005041
   0.83320605  0.16663234  0.50001403
   0.83330505  0.66662463  0.49997556
   0.16662427  0.33331961  0.47093122
   0.16660937  0.83329429  0.47093705
   0.66672369  0.33337251  0.47093489
   0.66670953  0.83334377  0.47093462
  -0.00000673 -0.00000246  0.36027030
   0.00000049  0.49999881  0.36027003
   0.50000331 -0.00000433  0.36027009
   0.50000237  0.50000732  0.36026994
   0.33426498  0.16507720  0.58269260
   0.33355863  0.66827805  0.58283138
   0.83250047  0.16650610  0.58292419
   0.83375478  0.66667481  0.58285887
  -0.00012397 -0.00010143  0.52898913
  -0.00009548  0.50000150  0.52906619
   0.50011791  0.00000502  0.52895865
   0.50011146  0.50008263  0.52891780
   0.33333316  0.16667403  0.41700302
   0.33334038  0.66666143  0.41700470
   0.83333548  0.16666067  0.41700668
   0.83332649  0.66666836  0.41700763
   0.17325098  0.33312196  0.63378125
   0.16658141  0.83306334  0.63994118
   0.66708070  0.33311745  0.63991054
   0.66682997  0.83391438  0.63994667
   0.09741372  0.33434386  0.72810855
   0.11639411  0.33294266  0.76820275
Direct configuration=     9
   0.16668743  0.33333636  0.38835785
   0.16669969  0.83335606  0.38837903
   0.66663441  0.33330652  0.38837266
   0.66664235  0.83333038  0.38836601
  -0.00047703 -0.00209054  0.61086826
  -0.00052604  0.50086646  0.61113229
   0.50006712 -0.00011822  0.61172381
   0.50254426  0.50097158  0.61085254
   0.33359539  0.16646038  0.50009041
   0.33345209  0.66702705  0.50009245
   0.83297959  0.16657705  0.50003413
   0.83333039  0.66658202  0.49994714
   0.16659604  0.33330439  0.47086294
   0.16656068  0.83326887  0.47086018
   0.66676282  0.33340584  0.47085570
   0.66674826  0.83334785  0.47085569
  -0.00001124 -0.00000665  0.35999357
  -0.00000597  0.49999630  0.35999396
   0.50000746 -0.00000120  0.35999409
   0.50000863  0.50000838  0.35999309
   0.33503102  0.16395666  0.58261416
   0.33376326  0.66942704  0.58288975
   0.83193610  0.16642055  0.58307522
   0.83412148  0.66663235  0.58295757
  -0.00017668 -0.00012431  0.52894865
  -0.00015156  0.49997751  0.52909352
   0.50022111  0.00001933  0.52889591
   0.50013145  0.50009595  0.52884079
   0.33333712  0.16668023  0.41670400
   0.33334311  0.66665770  0.41670522
   0.83333419  0.16666030  0.41670831
   0.83331945  0.66666346  0.41670927
   0.17329131  0.33306372  0.63363869
   0.16640146  0.83275228  0.64022311
   0.66748318  0.33311644  0.64017346
   0.66695876  0.83420999  0.64020366
   0.09355876  0.33474216  0.72907242
   0.11802216  0.33278575  0.76903646
Direct configuration=    10
   0.16668841  0.33333698  0.38831921
   0.16670945  0.83336043  0.38833399
   0.66662905  0.33329698  0.38832635
   0.66663649  0.83333422  0.38832118
  -0.00043632 -0.00214180  0.61086722
  -0.00046808  0.50085197  0.61114545
   0.50010829 -0.00012185  0.61176564
   0.50271858  0.50102050  0.61084595
   0.33362597  0.16641001  0.50006735
   0.33346403  0.66708932  0.50007394
   0.83293199  0.16656227  0.50001845
   0.83334848  0.66658100  0.49987403
   0.16658666  0.33330527  0.47090443
   0.16652743  0.83324596  0.47089814
   0.66678833  0.33343685  0.47089208
   0.66676649  0.83333710  0.47089216
  -0.00001370 -0.00001185  0.35994352
  -0.00000983  0.49999806  0.35994424
   0.50000769 -0.00000002  0.35994391
   0.50001406  0.50000984  0.35994273
   0.33526162  0.16368288  0.58259040
   0.33388124  0.66974684  0.58289675
   0.83176337  0.16635639  0.58310237
   0.83418885  0.66662309  0.58297246
  -0.00022089 -0.00017615  0.52890333
  -0.00018402  0.49998975  0.52905642
   0.50028405  0.00001470  0.52882403
   0.50018551  0.50013148  0.52879494
   0.33334403  0.16667641  0.41665255
   0.33334727  0.66666676  0.41665488
   0.83332354  0.16665686  0.41665747
   0.83331810  0.66666071  0.41666169
   0.17326732  0.33305098  0.63368621
   0.16627167  0.83264457  0.64028203
   0.66760290  0.33322116  0.64022080
   0.66703664  0.83420363  0.64024571
   0.09249715  0.33487736  0.72951157
   0.11843017  0.33273734  0.76908243
Direct configuration=    11
   0.16668940  0.33333760  0.38828045
   0.16671923  0.83336481  0.38828881
   0.66662369  0.33328741  0.38827989
   0.66663061  0.83333808  0.38827621
  -0.00039549 -0.00219324  0.61086617
  -0.00040993  0.50083742  0.61115865
   0.50014959 -0.00012549  0.61180760
   0.50289346  0.50106958  0.61083933
   0.33365665  0.16635948  0.50004423
   0.33347599  0.66715179  0.50005537
   0.83288424  0.16654745  0.50000272
   0.83336663  0.66657997  0.49980068
   0.16657724  0.33330616  0.47094606
   0.16649407  0.83322297  0.47093621
   0.66681392  0.33346797  0.47092857
   0.66678478  0.83332631  0.47092874
  -0.00001617 -0.00001707  0.35989331
  -0.00001370  0.49999983  0.35989436
   0.50000793  0.00000116  0.35989357
   0.50001952  0.50001131  0.35989220
   0.33549296  0.16340824  0.58256657
   0.33399960  0.67006765  0.58290377
   0.83159009  0.16629204  0.58312961
   0.83425643  0.66661380  0.58298738
  -0.00026524 -0.00022814  0.52885785
  -0.00021658  0.50000203  0.52901920
   0.50034718  0.00001004  0.52875192
   0.50023975  0.50016712  0.52874894
   0.33335096  0.16667257  0.41660094
   0.33335144  0.66667584  0.41660438
   0.83331285  0.16665341  0.41660647
   0.83331675  0.66665796  0.41661396
   0.17324326  0.33303819  0.63373389
   0.16614146  0.83253652  0.64034114
   0.66772299  0.33332622  0.64026829
   0.66711478  0.83419726  0.64028789
   0.09143217  0.33501298  0.72995211
   0.11883946  0.33268877  0.76912854
Direct configuration=    12
   0.16668943  0.33333787  0.38825380
   0.16672462  0.83336695  0.38825754
   0.66662129  0.33328201  0.38824812
   0.66662763  0.83334065  0.38824554
  -0.00035620 -0.00217976  0.61087294
  -0.00036719  0.50081168  0.61117353
   0.50017295 -0.00012449  0.61183068
   0.50293484  0.50106928  0.61084330
   0.33366917  0.16633620  0.50003060
   0.33348085  0.66717844  0.50004426
   0.83286584  0.16654119  0.49999402
   0.83337601  0.66658073  0.49976129
   0.16657314  0.33330719  0.47097075
   0.16647688  0.83321076  0.47095886
   0.66682725  0.33348471  0.47095036
   0.66679408  0.83331973  0.47095050
  -0.00001733 -0.00002015  0.35987294
  -0.00001564  0.50000115  0.35987415
   0.50000781  0.00000165  0.35987299
   0.50002264  0.50001215  0.35987164
   0.33559976  0.16328975  0.58255574
   0.33406198  0.67021225  0.58290584
   0.83151027  0.16625710  0.58314001
   0.83428264  0.66661017  0.58299217
  -0.00028806 -0.00025623  0.52883342
  -0.00023255  0.50000937  0.52899692
   0.50038157  0.00000668  0.52871191
   0.50026945  0.50018658  0.52872559
   0.33335495  0.16666981  0.41658057
   0.33335383  0.66668154  0.41658464
   0.83330657  0.16665133  0.41658640
   0.83331649  0.66665659  0.41659549
   0.17323121  0.33303221  0.63376675
   0.16607159  0.83248535  0.64036622
   0.66777793  0.33338877  0.64028708
   0.66715682  0.83418124  0.64030369
   0.09087228  0.33508560  0.73008884
   0.11908718  0.33265995  0.76921691
Direct configuration=    13
   0.16668953  0.33333869  0.38817383
   0.16674079  0.83337337  0.38816371
   0.66661410  0.33326581  0.38815283
   0.66661870  0.83334838  0.38815351
  -0.00023833 -0.00213934  0.61089326
  -0.00023896  0.50073447  0.61121819
   0.50024305 -0.00012148  0.61189990
   0.50305896  0.50106837  0.61085519
   0.33370675  0.16626638  0.49998970
   0.33349543  0.66725840  0.50001093
   0.83281063  0.16652243  0.49996790
   0.83340415  0.66658301  0.49964310
   0.16656084  0.33331028  0.47104482
   0.16642528  0.83317411  0.47102680
   0.66686724  0.33353492  0.47101570
   0.66682198  0.83329999  0.47101578
  -0.00002081 -0.00002939  0.35981184
  -0.00002145  0.50000512  0.35981351
   0.50000748  0.00000311  0.35981126
   0.50003202  0.50001468  0.35980997
   0.33592014  0.16293428  0.58252327
   0.33424910  0.67064605  0.58291202
   0.83127080  0.16615230  0.58317123
   0.83436127  0.66659926  0.58300652
  -0.00035654 -0.00034051  0.52876012
  -0.00028046  0.50003141  0.52893008
   0.50048473 -0.00000342  0.52859188
   0.50035855  0.50024498  0.52865557
   0.33336690  0.16666150  0.41651944
   0.33336099  0.66669863  0.41652542
   0.83328771  0.16664509  0.41652616
   0.83331573  0.66665249  0.41654010
   0.17319508  0.33301425  0.63386536
   0.16586197  0.83233184  0.64044146
   0.66794275  0.33357644  0.64034345
   0.66728295  0.83413318  0.64035110
   0.08919262  0.33530344  0.73049904
   0.11983034  0.33257348  0.76948204
Direct configuration=    14
   0.16668972  0.33334033  0.38801391
   0.16677312  0.83338621  0.38797606
   0.66659971  0.33323339  0.38796224
   0.66660084  0.83336382  0.38796945
  -0.00000260 -0.00205849  0.61093388
   0.00001750  0.50058004  0.61130750
   0.50038325 -0.00011545  0.61203835
   0.50330722  0.50106655  0.61087898
   0.33378191  0.16612672  0.49990792
   0.33352459  0.66741831  0.49994427
   0.83270020  0.16648491  0.49991568
   0.83346043  0.66658757  0.49940674
   0.16653624  0.33331646  0.47119295
   0.16632209  0.83310081  0.47116268
   0.66694723  0.33363534  0.47114638
   0.66687777  0.83326051  0.47114635
  -0.00002777 -0.00004787  0.35968965
  -0.00003308  0.50001304  0.35969224
   0.50000681  0.00000603  0.35968780
   0.50005076  0.50001973  0.35968662
   0.33656091  0.16222334  0.58245832
   0.33462335  0.67151366  0.58292438
   0.83079187  0.16594269  0.58323365
   0.83451853  0.66657744  0.58303522
  -0.00049350 -0.00050905  0.52861352
  -0.00037629  0.50007550  0.52879639
   0.50069105 -0.00002361  0.52835181
   0.50053675  0.50036177  0.52851553
   0.33339082  0.16664490  0.41639717
   0.33337531  0.66673283  0.41640699
   0.83324999  0.16663261  0.41640570
   0.83331421  0.66664428  0.41642933
   0.17312280  0.33297833  0.63406256
   0.16544272  0.83202483  0.64059195
   0.66827238  0.33395178  0.64045618
   0.66753522  0.83403705  0.64044591
   0.08583328  0.33573912  0.73131944
   0.12131666  0.33240054  0.77001230
Direct configuration=    15
   0.16669011  0.33334361  0.38769407
   0.16683778  0.83341190  0.38760076
   0.66657095  0.33316857  0.38758105
   0.66656512  0.83339472  0.38760134
   0.00046886 -0.00189679  0.61101514
   0.00053042  0.50027118  0.61148611
   0.50066364 -0.00010339  0.61231525
   0.50380373  0.50106292  0.61092655
   0.33393222  0.16584742  0.49974435
   0.33358289  0.66773812  0.49981095
   0.83247934  0.16640986  0.49981123
   0.83357300  0.66659669  0.49893400
   0.16648704  0.33332882  0.47148922
   0.16611571  0.83295421  0.47143445
   0.66710719  0.33383619  0.47140775
   0.66698935  0.83318154  0.47140747
  -0.00004170 -0.00008483  0.35944526
  -0.00005632  0.50002889  0.35944968
   0.50000547  0.00001187  0.35944087
   0.50008826  0.50002984  0.35943991
   0.33784246  0.16080148  0.58232843
   0.33537185  0.67324888  0.58294911
   0.82983400  0.16552348  0.58335850
   0.83483306  0.66653380  0.58309262
  -0.00076742 -0.00084614  0.52832032
  -0.00056794  0.50016366  0.52852902
   0.50110371 -0.00006400  0.52787168
   0.50089315  0.50059536  0.52823544
   0.33343864  0.16661169  0.41615265
   0.33340395  0.66680121  0.41617012
   0.83317455  0.16660765  0.41616478
   0.83331116  0.66662787  0.41620778
   0.17297826  0.33290649  0.63445697
   0.16460423  0.83141079  0.64089293
   0.66893164  0.33470246  0.64068165
   0.66803976  0.83384481  0.64063554
   0.07911460  0.33661048  0.73296024
   0.12428930  0.33205467  0.77107282
Direct configuration=    16
   0.16669090  0.33335017  0.38705439
   0.16696709  0.83346327  0.38685016
   0.66651341  0.33303892  0.38681869
   0.66649368  0.83345651  0.38686510
   0.00141178 -0.00157340  0.61117765
   0.00155625  0.49965347  0.61184335
   0.50122444 -0.00007929  0.61286904
   0.50479675  0.50105565  0.61102170
   0.33423284  0.16528881  0.49941721
   0.33369951  0.66837776  0.49954432
   0.83203762  0.16625975  0.49960232
   0.83379812  0.66661493  0.49798853
   0.16638864  0.33335353  0.47208175
   0.16570294  0.83266102  0.47197799
   0.66742711  0.33423788  0.47193048
   0.66721251  0.83302361  0.47192972
  -0.00006955 -0.00015875  0.35895649
  -0.00010282  0.50006058  0.35896458
   0.50000278  0.00002356  0.35894701
   0.50016325  0.50005006  0.35894651
   0.34040555  0.15795774  0.58206864
   0.33686884  0.67671932  0.58299858
   0.82791826  0.16468506  0.58360819
   0.83546211  0.66644653  0.58320743
  -0.00131525 -0.00152031  0.52773392
  -0.00095125  0.50034000  0.52799428
   0.50192901 -0.00014478  0.52691142
   0.50160596  0.50106254  0.52767526
   0.33353429  0.16654527  0.41566359
   0.33346122  0.66693798  0.41569639
   0.83302367  0.16655774  0.41568292
   0.83330507  0.66659505  0.41576467
   0.17268918  0.33276282  0.63524579
   0.16292725  0.83018272  0.64149487
   0.67025016  0.33620382  0.64113258
   0.66904883  0.83346032  0.64101479
   0.06567725  0.33835320  0.73624184
   0.13023457  0.33136293  0.77319385
Direct configuration=    17
   0.16669027  0.33334490  0.38756800
   0.16686326  0.83342202  0.38745284
   0.66655961  0.33314302  0.38743081
   0.66655104  0.83340689  0.38745624
   0.00065469 -0.00183306  0.61104717
   0.00073259  0.50014944  0.61155652
   0.50077416 -0.00009864  0.61242439
   0.50399943  0.50106149  0.61094531
   0.33399146  0.16573733  0.49967988
   0.33360588  0.66786418  0.49975840
   0.83239229  0.16638027  0.49977006
   0.83361736  0.66660028  0.49874767
   0.16646765  0.33333369  0.47160600
   0.16603436  0.83289643  0.47154157
   0.66717024  0.33391535  0.47151077
   0.66703333  0.83315042  0.47151039
  -0.00004719 -0.00009940  0.35934894
  -0.00006549  0.50003513  0.35935408
   0.50000494  0.00001418  0.35934354
   0.50010304  0.50003383  0.35934267
   0.33834759  0.16024104  0.58227723
   0.33566687  0.67393283  0.58295886
   0.82945645  0.16535825  0.58340771
   0.83495703  0.66651660  0.58311525
  -0.00087538 -0.00097900  0.52820475
  -0.00064348  0.50019842  0.52842364
   0.50126636 -0.00007992  0.52768243
   0.50103363  0.50068743  0.52812504
   0.33345749  0.16659860  0.41605626
   0.33341523  0.66682817  0.41607676
   0.83314482  0.16659782  0.41606981
   0.83330996  0.66662141  0.41612045
   0.17292129  0.33287818  0.63461243
   0.16427374  0.83116877  0.64101156
   0.66919149  0.33499835  0.64077051
   0.66823862  0.83376903  0.64071028
   0.07646639  0.33695393  0.73360697
   0.12546098  0.33191835  0.77149083
Direct configuration=    18
   0.16669032  0.33334534  0.38752500
   0.16687195  0.83342548  0.38740238
   0.66655574  0.33313430  0.38737956
   0.66654624  0.83341105  0.38740675
   0.00071807 -0.00181132  0.61105809
   0.00080154  0.50010792  0.61158053
   0.50081186 -0.00009702  0.61246162
   0.50406619  0.50106100  0.61095170
   0.33401167  0.16569978  0.49965789
   0.33361372  0.66790718  0.49974048
   0.83236259  0.16637018  0.49975601
   0.83363250  0.66660151  0.49868411
   0.16646103  0.33333535  0.47164583
   0.16600661  0.83287672  0.47157811
   0.66719174  0.33394235  0.47154591
   0.66704833  0.83313980  0.47154550
  -0.00004906 -0.00010436  0.35931608
  -0.00006861  0.50003726  0.35932147
   0.50000476  0.00001496  0.35931034
   0.50010808  0.50003518  0.35930951
   0.33851989  0.16004988  0.58225977
   0.33576750  0.67416612  0.58296219
   0.82932767  0.16530189  0.58342449
   0.83499932  0.66651074  0.58312297
  -0.00091221 -0.00102432  0.52816533
  -0.00066925  0.50021027  0.52838769
   0.50132183 -0.00008535  0.52761788
   0.50108155  0.50071884  0.52808739
   0.33346392  0.16659413  0.41602339
   0.33341908  0.66683736  0.41604491
   0.83313467  0.16659446  0.41603742
   0.83330955  0.66661920  0.41609066
   0.17290186  0.33286852  0.63466545
   0.16416101  0.83108621  0.64105202
   0.66928013  0.33509927  0.64080083
   0.66830645  0.83374319  0.64073577
   0.07556311  0.33707108  0.73382757
   0.12586063  0.33187185  0.77163341
Direct configuration=    19
   0.16667618  0.33334402  0.38748396
   0.16690531  0.83343428  0.38732222
   0.66655235  0.33309586  0.38730407
   0.66653361  0.83343992  0.38733980
   0.00079832 -0.00186447  0.61107191
   0.00087832  0.50008895  0.61163270
   0.50093785 -0.00010506  0.61251618
   0.50422499  0.50107500  0.61095322
   0.33403953  0.16569098  0.49964843
   0.33362713  0.66790124  0.49974794
   0.83239628  0.16637992  0.49977170
   0.83363201  0.66659581  0.49867454
   0.16647200  0.33333865  0.47164391
   0.16599630  0.83286643  0.47155244
   0.66720519  0.33396787  0.47151609
   0.66706546  0.83311360  0.47151213
  -0.00004956 -0.00012072  0.35924146
  -0.00007227  0.50005026  0.35924616
   0.49999718  0.00001306  0.35922853
   0.50012120  0.50003864  0.35923383
   0.33872271  0.15989561  0.58226011
   0.33595527  0.67438698  0.58297984
   0.82922401  0.16520195  0.58345164
   0.83503129  0.66650878  0.58312409
  -0.00090875 -0.00102392  0.52812238
  -0.00065446  0.50019792  0.52833439
   0.50146620 -0.00010311  0.52748048
   0.50109492  0.50072407  0.52805930
   0.33348026  0.16656832  0.41593605
   0.33342795  0.66687317  0.41595812
   0.83310270  0.16658278  0.41594864
   0.83332038  0.66661805  0.41598704
   0.17295556  0.33283773  0.63485155
   0.16393136  0.83097081  0.64112700
   0.66939098  0.33537192  0.64084686
   0.66848082  0.83357331  0.64076738
   0.07355667  0.33738159  0.73439275
   0.12670674  0.33175582  0.77184717
Direct configuration=    20
   0.16663375  0.33334007  0.38736084
   0.16700537  0.83346068  0.38708176
   0.66654217  0.33298051  0.38707759
   0.66649573  0.83352653  0.38713897
   0.00103907 -0.00202394  0.61111339
   0.00110866  0.50003204  0.61178922
   0.50131580 -0.00012918  0.61267985
   0.50470142  0.50111699  0.61095779
   0.33412310  0.16566457  0.49962005
   0.33366737  0.66788343  0.49977033
   0.83249733  0.16640912  0.49981875
   0.83363056  0.66657871  0.49864582
   0.16650492  0.33334854  0.47163814
   0.16596537  0.83283555  0.47147544
   0.66724552  0.33404441  0.47142664
   0.66711687  0.83303502  0.47141204
  -0.00005106 -0.00016979  0.35901759
  -0.00008322  0.50008925  0.35902023
   0.49997445  0.00000736  0.35898311
   0.50016055  0.50004899  0.35900681
   0.33933116  0.15943280  0.58226115
   0.33651857  0.67504955  0.58303280
   0.82891303  0.16490213  0.58353309
   0.83512722  0.66650292  0.58312744
  -0.00089840 -0.00102272  0.52799351
  -0.00061008  0.50016089  0.52817450
   0.50189932 -0.00015637  0.52706826
   0.50113502  0.50073978  0.52797504
   0.33352930  0.16649088  0.41567403
   0.33345456  0.66698060  0.41569775
   0.83300677  0.16654774  0.41568230
   0.83335284  0.66661462  0.41567617
   0.17311667  0.33274535  0.63540983
   0.16324241  0.83062458  0.64135192
   0.66972355  0.33618985  0.64098496
   0.66900391  0.83306369  0.64086219
   0.06753734  0.33831313  0.73608828
   0.12924507  0.33140773  0.77248845
Direct configuration=    21
   0.16654889  0.33333217  0.38711461
   0.16720549  0.83351348  0.38660082
   0.66652182  0.33274983  0.38662464
   0.66641996  0.83369977  0.38673730
   0.00152057 -0.00234289  0.61119634
   0.00156932  0.49991821  0.61210225
   0.50207171 -0.00017741  0.61300721
   0.50565427  0.50120098  0.61096691