CeO2                                    
           1
     7.707464    0.000000    0.000000
    -3.853732    6.674860    0.000000
     0.000000    0.000000   28.319031
   Ce   O    C    O 
  12  24   1   1
Direct configuration=     1
   0.16666700  0.33333300  0.38888900
   0.16666700  0.83333300  0.38888900
   0.66666700  0.33333300  0.38888900
   0.66666700  0.83333300  0.38888900
   0.00000000  0.00000000  0.61111100
   0.00000000  0.50000000  0.61111100
   0.50000000  0.00000000  0.61111100
   0.50000000  0.50000000  0.61111100
   0.33333300  0.16666700  0.50000000
   0.33333300  0.66666700  0.50000000
   0.83333300  0.16666700  0.50000000
   0.83333300  0.66666700  0.50000000
   0.16666700  0.33333300  0.47222200
   0.16666700  0.83333300  0.47222200
   0.66666700  0.33333300  0.47222200
   0.66666700  0.83333300  0.47222200
   0.00000000  0.00000000  0.36111100
   0.00000000  0.50000000  0.36111100
   0.50000000  0.00000000  0.36111100
   0.50000000  0.50000000  0.36111100
   0.33333300  0.16666700  0.58333300
   0.33333300  0.66666700  0.58333300
   0.83333300  0.16666700  0.58333300
   0.83333300  0.66666700  0.58333300
   0.00000000  0.00000000  0.52777800
   0.00000000  0.50000000  0.52777800
   0.50000000  0.00000000  0.52777800
   0.50000000  0.50000000  0.52777800
   0.33333300  0.16666700  0.41666700
   0.33333300  0.66666700  0.41666700
   0.83333300  0.16666700  0.41666700
   0.83333300  0.66666700  0.41666700
   0.16666700  0.33333300  0.63888900
   0.16666700  0.83333300  0.63888900
   0.66666700  0.33333300  0.63888900
   0.66666700  0.83333300  0.63888900
   0.00000000  0.33333300  0.72389500
   0.91445500  0.16224400  0.72389500
Direct configuration=     2
   0.16666621  0.33333373  0.38860595
   0.16666621  0.83333180  0.38860636
   0.66666720  0.33333303  0.38860619
   0.66666660  0.83333230  0.38860652
  -0.00035900 -0.00091287  0.61134253
   0.00018493  0.50092496  0.61141372
   0.49974471 -0.00034047  0.61141566
   0.50042628  0.50043499  0.61135824
   0.33334033  0.16666763  0.49999691
   0.33333669  0.66667223  0.50000464
   0.83332392  0.16666570  0.49999013
   0.83332875  0.66666055  0.50000812
   0.16665360  0.33332597  0.47179485
   0.16666332  0.83333178  0.47179429
   0.66667397  0.33333007  0.47179573
   0.66667516  0.83334342  0.47179656
   0.00000511  0.00000513  0.36090802
   0.00000170  0.49999837  0.36090860
   0.49999734  0.00000103  0.36090768
   0.49999410  0.49999440  0.36090788
   0.33328806  0.16672814  0.58312916
   0.33328256  0.66659495  0.58311175
   0.83343724  0.16673311  0.58313843
   0.83331355  0.66664644  0.58310650
  -0.00000140  0.00001410  0.52821008
  -0.00001370  0.49997961  0.52819457
   0.50001793  0.00001687  0.52819875
   0.49999818  0.49999202  0.52820452
   0.33333079  0.16666763  0.41688408
   0.33332725  0.66666136  0.41688459
   0.83333853  0.16667194  0.41688753
   0.83333480  0.66666513  0.41688521
   0.16768048  0.33371104  0.63885314
   0.16672086  0.83357163  0.63899730
   0.66660100  0.33326130  0.63909188
   0.66651135  0.83313211  0.63896925
   0.00082069  0.33602469  0.72386384
   0.91280967  0.15907120  0.72441084
Direct configuration=     3
   0.16666672  0.33333326  0.38878934
   0.16666672  0.83333258  0.38878948
   0.66666707  0.33333301  0.38878942
   0.66666686  0.83333275  0.38878954
  -0.00012640 -0.00032142  0.61119252
   0.00006511  0.50032568  0.61121759
   0.49991011 -0.00011988  0.61121827
   0.50015009  0.50015316  0.61119805
   0.33333558  0.16666722  0.49999891
   0.33333430  0.66666884  0.50000163
   0.83332980  0.16666654  0.49999653
   0.83333150  0.66666473  0.50000286
   0.16666228  0.33333052  0.47207160
   0.16666571  0.83333257  0.47207141
   0.66666946  0.33333197  0.47207191
   0.66666987  0.83333667  0.47207220
   0.00000180  0.00000181  0.36103953
   0.00000060  0.49999942  0.36103973
   0.49999906  0.00000036  0.36103941
   0.49999792  0.49999803  0.36103948
   0.33331718  0.16668853  0.58326123
   0.33331524  0.66664163  0.58325510
   0.83336970  0.16669028  0.58326449
   0.83332615  0.66665976  0.58325325
  -0.00000049  0.00000496  0.52793013
  -0.00000482  0.49999282  0.52792467
   0.50000631  0.00000594  0.52792615
   0.49999936  0.49999719  0.52792818
   0.33333222  0.16666722  0.41674343
   0.33333098  0.66666501  0.41674361
   0.83333495  0.16666874  0.41674465
   0.83333364  0.66666634  0.41674383
   0.16702385  0.33346611  0.63887637
   0.16668596  0.83341702  0.63892713
   0.66664376  0.33330775  0.63896043
   0.66661220  0.83326227  0.63891725
   0.00028896  0.33428074  0.72388403
   0.91387568  0.16112686  0.72407663
Direct configuration=     4
   0.16666671  0.33333367  0.38868748
   0.16666658  0.83333238  0.38868775
   0.66666695  0.33333318  0.38868758
   0.66666655  0.83333244  0.38868790
  -0.00025268 -0.00063486  0.61127454
   0.00013139  0.50064775  0.61132497
   0.49983022 -0.00022919  0.61132630
   0.50029287  0.50029783  0.61128666
   0.33333917  0.16666904  0.49999866
   0.33333503  0.66666960  0.50000279
   0.83332722  0.16666780  0.49999472
   0.83332920  0.66666086  0.50000294
   0.16665887  0.33332851  0.47191180
   0.16666389  0.83333230  0.47191131
   0.66667134  0.33333208  0.47191224
   0.66667259  0.83333901  0.47191268
   0.00000292  0.00000306  0.36095950
   0.00000088  0.49999903  0.36095983
   0.49999845  0.00000069  0.36095932
   0.49999655  0.49999677  0.36095940
   0.33330089  0.16670617  0.58318945
   0.33329480  0.66662058  0.58317735
   0.83340930  0.16671645  0.58319798
   0.83332330  0.66665304  0.58317388
  -0.00000180  0.00000585  0.52809244
  -0.00000929  0.49998983  0.52808176
   0.50001100  0.00001074  0.52808432
   0.50000113  0.49999627  0.52808809
   0.33333179  0.16666742  0.41681919
   0.33332980  0.66666381  0.41681946
   0.83333610  0.16666979  0.41682121
   0.83333391  0.66666592  0.41681996
   0.16740755  0.33361724  0.63886674
   0.16670169  0.83350237  0.63897177
   0.66662444  0.33328660  0.63903981
   0.66655233  0.83318190  0.63894998
  -0.00004299  0.33401248  0.72386985
   0.91388637  0.16119861  0.72427841
Direct configuration=     5
   0.16666667  0.33333464  0.38844707
   0.16666623  0.83333191  0.38844763
   0.66666665  0.33333358  0.38844722
   0.66666583  0.83333172  0.38844800
  -0.00055074 -0.00137468  0.61146814
   0.00028782  0.50140792  0.61157842
   0.49964164 -0.00048721  0.61158127
   0.50062985  0.50063928  0.61149579
   0.33334765  0.16667331  0.49999807
   0.33333675  0.66667138  0.50000551
   0.83332111  0.16667078  0.49999046
   0.83332376  0.66665173  0.50000314
   0.16665083  0.33332375  0.47153462
   0.16665961  0.83333167  0.47153343
   0.66667580  0.33333233  0.47153536
   0.66667899  0.83334456  0.47153617
   0.00000555  0.00000602  0.36077061
   0.00000155  0.49999811  0.36077123
   0.49999701  0.00000148  0.36077029
   0.49999330  0.49999379  0.36077038
   0.33326246  0.16674780  0.58302002
   0.33324656  0.66657088  0.58299383
   0.83350278  0.16677824  0.58304100
   0.83331655  0.66663716  0.58298654
  -0.00000490  0.00000796  0.52847552
  -0.00001983  0.49998276  0.52845252
   0.50002205  0.00002205  0.52845765
   0.50000530  0.49999410  0.52846552
   0.33333076  0.16666790  0.41699800
   0.33332704  0.66666097  0.41699849
   0.83333881  0.16667227  0.41700193
   0.83333456  0.66666494  0.41699965
   0.16831320  0.33397394  0.63884401
   0.16673881  0.83370381  0.63907711
   0.66657885  0.33323669  0.63922716
   0.66641102  0.83299221  0.63902722
  -0.00082650  0.33337931  0.72383637
   0.91391161  0.16136794  0.72475467
Direct configuration=     6
   0.16666666  0.33333512  0.38832873
   0.16666606  0.83333168  0.38832944
   0.66666650  0.33333378  0.38832891
   0.66666547  0.83333136  0.38832992
  -0.00069744 -0.00173881  0.61156342
   0.00036481  0.50178208  0.61170317
   0.49954882 -0.00061420  0.61170677
   0.50079572  0.50080734  0.61159872
   0.33335182  0.16667542  0.49999778
   0.33333759  0.66667226  0.50000685
   0.83331811  0.16667224  0.49998836
   0.83332108  0.66664723  0.50000324
   0.16664688  0.33332140  0.47134897
   0.16665751  0.83333136  0.47134744
   0.66667799  0.33333245  0.47134986
   0.66668214  0.83334728  0.47135085
   0.00000685  0.00000748  0.36067764
   0.00000188  0.49999766  0.36067840
   0.49999630  0.00000186  0.36067724
   0.49999170  0.49999233  0.36067734
   0.33324355  0.16676829  0.58293663
   0.33322282  0.66654642  0.58290350
   0.83354879  0.16680865  0.58296374
   0.83331323  0.66662935  0.58289433
  -0.00000642  0.00000899  0.52866407
  -0.00002502  0.49997928  0.52863501
   0.50002749  0.00002762  0.52864140
   0.50000736  0.49999304  0.52865130
   0.33333026  0.16666813  0.41708601
   0.33332567  0.66665957  0.41708661
   0.83334014  0.16667349  0.41709088
   0.83333489  0.66666446  0.41708809
   0.16875897  0.33414952  0.63883282
   0.16675709  0.83380296  0.63912896
   0.66655640  0.33321212  0.63931938
   0.66634147  0.83289885  0.63906524
  -0.00121214  0.33306766  0.72381989
   0.91392403  0.16145129  0.72498908
Direct configuration=     7
   0.16666737  0.33333551  0.38832906
   0.16666677  0.83333191  0.38832932
   0.66666571  0.33333334  0.38832872
   0.66666455  0.83333093  0.38832962
  -0.00062017 -0.00153814  0.61154194
   0.00037058  0.50163756  0.61170196
   0.49965208 -0.00048120  0.61168592
   0.50065082  0.50065460  0.61159901
   0.33335728  0.16667902  0.50000900
   0.33333371  0.66667023  0.50000500
   0.83331982  0.16668135  0.50000542
   0.83331819  0.66663771  0.49998193
   0.16664886  0.33332217  0.47130708
   0.16665058  0.83332828  0.47130676
   0.66668028  0.33334070  0.47130772
   0.66668468  0.83334143  0.47130960
   0.00000537  0.00000619  0.36061995
   0.00000097  0.49999770  0.36062058
   0.49999706  0.00000177  0.36061958
   0.49999312  0.49999342  0.36061955
   0.33324575  0.16670265  0.58295865
   0.33320802  0.66661569  0.58292933
   0.83355101  0.16681587  0.58300376
   0.83336103  0.66664336  0.58292275
  -0.00002618 -0.00003730  0.52870422
  -0.00002616  0.50001669  0.52867768
   0.50001842  0.00001366  0.52868339
   0.50003814  0.50002014  0.52868562
   0.33333129  0.16666774  0.41705191
   0.33332757  0.66666140  0.41705282
   0.83333794  0.16667181  0.41705614
   0.83333395  0.66666447  0.41705504
   0.16889632  0.33421814  0.63885256
   0.16673149  0.83380563  0.63918110
   0.66659129  0.33323242  0.63937822
   0.66632904  0.83286538  0.63910875
  -0.00143274  0.33292027  0.72380494
   0.91393118  0.16147452  0.72512540
Direct configuration=     8
   0.16666876  0.33333627  0.38832970
   0.16666816  0.83333235  0.38832909
   0.66666416  0.33333247  0.38832836
   0.66666276  0.83333010  0.38832903
  -0.00046990 -0.00114790  0.61150016
   0.00038180  0.50135654  0.61169960
   0.49985287 -0.00022257  0.61164537
   0.50036907  0.50035757  0.61159956
   0.33336791  0.16668602  0.50003082
   0.33332617  0.66666628  0.50000141
   0.83332316  0.16669905  0.50003860
   0.83331258  0.66661919  0.49994049
   0.16665271  0.33332365  0.47122563
   0.16663711  0.83332229  0.47122766
   0.66668473  0.33335674  0.47122577
   0.66668961  0.83333005  0.47122938
   0.00000249  0.00000368  0.36050776
  -0.00000081  0.49999778  0.36050813
   0.49999852  0.00000159  0.36050743
   0.49999587  0.49999555  0.36050718
   0.33325003  0.16657501  0.58300147
   0.33317924  0.66675038  0.58297957
   0.83355534  0.16682992  0.58308157
   0.83345398  0.66667061  0.58297800
  -0.00006459 -0.00012732  0.52878230
  -0.00002836  0.50008944  0.52876065
   0.50000078 -0.00001350  0.52876506
   0.50009802  0.50007285  0.52875235
   0.33333329  0.16666698  0.41698560
   0.33333126  0.66666496  0.41698711
   0.83333365  0.16666854  0.41698861
   0.83333215  0.66666450  0.41699076
   0.16916341  0.33435157  0.63889095
   0.16668170  0.83381082  0.63928248
   0.66665915  0.33327191  0.63949266
   0.66630487  0.83280029  0.63919337
  -0.00186172  0.33263366  0.72377588
   0.91394509  0.16151969  0.72539047
Direct configuration=     9
   0.16667153  0.33333780  0.38833097
   0.16667093  0.83333325  0.38832863
   0.66666108  0.33333073  0.38832764
   0.66665919  0.83332843  0.38832786
  -0.00016936 -0.00036742  0.61141659
   0.00040423  0.50079449  0.61169490
   0.50025446  0.00029470  0.61156428
   0.49980555  0.49976351  0.61160067
   0.33338917  0.16670002  0.50007446
   0.33331108  0.66665837  0.49999422
   0.83332983  0.16673446  0.50010495
   0.83330134  0.66658215  0.49985761
   0.16666042  0.33332662  0.47106272
   0.16661018  0.83331031  0.47106945
   0.66669365  0.33338882  0.47106186
   0.66669947  0.83330728  0.47106895
  -0.00000328 -0.00000133  0.36028338
  -0.00000437  0.49999793  0.36028325
   0.50000145  0.00000123  0.36028315
   0.50000138  0.49999980  0.36028244
   0.33325860  0.16631973  0.58308710
   0.33312167  0.66701977  0.58308003
   0.83356400  0.16685803  0.58323721
   0.83363987  0.66672512  0.58308852
  -0.00014142 -0.00030736  0.52893846
  -0.00003277  0.50023494  0.52892659
   0.49996549 -0.00006782  0.52892838
   0.50021776  0.50017827  0.52888582
   0.33333730  0.16666546  0.41685298
   0.33333864  0.66667207  0.41685569
   0.83332506  0.16666200  0.41685353
   0.83332853  0.66666456  0.41686220
   0.16969759  0.33461844  0.63896774
   0.16658213  0.83382119  0.63948525
   0.66679485  0.33335087  0.63972153
   0.66625653  0.83267011  0.63936261
  -0.00271968  0.33206043  0.72371776
   0.91397292  0.16161003  0.72592063
Direct configuration=    10
   0.16667054  0.33333612  0.38832143
   0.16667409  0.83333594  0.38831837
   0.66665910  0.33332658  0.38831733
   0.66665872  0.83333134  0.38831763
  -0.00013014 -0.00027902  0.61141254
   0.00041373  0.50073919  0.61170319
   0.50030433  0.00035872  0.61156336
   0.49974630  0.49969575  0.61160790
   0.33339294  0.16670409  0.50007827
   0.33330733  0.66665505  0.49999351
   0.83333334  0.16674287  0.50011182
   0.83329873  0.66657447  0.49984756
   0.16665905  0.33332454  0.47104524
   0.16660883  0.83331122  0.47105108
   0.66669413  0.33338953  0.47104328
   0.66670171  0.83330804  0.47105045
  -0.00000448 -0.00000297  0.36024442
  -0.00000496  0.49999864  0.36024425
   0.50000159  0.00000082  0.36024413
   0.50000285  0.50000097  0.36024346
   0.33326490  0.16627918  0.58310060
   0.33311053  0.66706491  0.58309669
   0.83357179  0.16686959  0.58326414
   0.83367025  0.66673011  0.58310746
  -0.00015245 -0.00032751  0.52895519
  -0.00003534  0.50024935  0.52894541
   0.49996808 -0.00006932  0.52894611
   0.50023089  0.50018964  0.52889957
   0.33333815  0.16666524  0.41682975
   0.33333970  0.66667327  0.41683207
   0.83332350  0.16666116  0.41683037
   0.83332791  0.66666429  0.41683816
   0.16978392  0.33465566  0.63898224
   0.16656783  0.83382719  0.63951984
   0.66681714  0.33335895  0.63976099
   0.66625095  0.83265454  0.63939127
  -0.00277893  0.33218274  0.72370389
   0.91386845  0.16139613  0.72602703
Direct configuration=    11
   0.16666975  0.33333476  0.38831373
   0.16667664  0.83333811  0.38831008
   0.66665751  0.33332323  0.38830901
   0.66665835  0.83333368  0.38830938
  -0.00009849 -0.00020768  0.61140927
   0.00042140  0.50069457  0.61170989
   0.50034458  0.00041039  0.61156262
   0.49969848  0.49964107  0.61161374
   0.33339598  0.16670738  0.50008135
   0.33330430  0.66665237  0.49999293
   0.83333617  0.16674966  0.50011737
   0.83329662  0.66656827  0.49983944
   0.16665794  0.33332287  0.47103112
   0.16660774  0.83331195  0.47103625
   0.66669452  0.33339011  0.47102829
   0.66670351  0.83330865  0.47103551
  -0.00000546 -0.00000429  0.36021298
  -0.00000543  0.49999922  0.36021278
   0.50000170  0.00000050  0.36021264
   0.50000403  0.50000192  0.36021201
   0.33326999  0.16624645  0.58311149
   0.33310154  0.66710134  0.58311014
   0.83357809  0.16687892  0.58328587
   0.83369477  0.66673414  0.58312275
  -0.00016136 -0.00034377  0.52896869
  -0.00003741  0.50026099  0.52896059
   0.49997016 -0.00007054  0.52896041
   0.50024149  0.50019882  0.52891067
   0.33333883  0.16666506  0.41681101
   0.33334055  0.66667423  0.41681301
   0.83332224  0.16666047  0.41681168
   0.83332740  0.66666407  0.41681875
   0.16985359  0.33468569  0.63899394
   0.16655630  0.83383203  0.63954776
   0.66683513  0.33336546  0.63979285
   0.66624644  0.83264196  0.63941440
  -0.00282674  0.33228146  0.72369269
   0.91378414  0.16122350  0.72611291
Direct configuration=    12
   0.16666815  0.33333205  0.38829833
   0.16668173  0.83334245  0.38829351
   0.66665433  0.33331653  0.38829238
   0.66665760  0.83333837  0.38829288
  -0.00003518 -0.00006499  0.61140273
   0.00043675  0.50060531  0.61172327
   0.50042509  0.00051372  0.61156113
   0.49960283  0.49953170  0.61162542
   0.33340205  0.16671395  0.50008750
   0.33329825  0.66664700  0.49999178
   0.83334184  0.16676322  0.50012846
   0.83329241  0.66655587  0.49982322
   0.16665572  0.33331952  0.47100290
   0.16660556  0.83331341  0.47100659
   0.66669530  0.33339127  0.47099831
   0.66670713  0.83330986  0.47100564
  -0.00000740 -0.00000693  0.36015011
  -0.00000639  0.50000036  0.36014984
   0.50000193 -0.00000016  0.36014965
   0.50000639  0.50000381  0.36014910
   0.33328016  0.16618100  0.58313327
   0.33308355  0.66717420  0.58313703
   0.83359068  0.16689758  0.58332934
   0.83374382  0.66674220  0.58315332
  -0.00017917 -0.00037629  0.52899569
  -0.00004156  0.50028426  0.52899096
   0.49997434 -0.00007296  0.52898902
   0.50026269  0.50021718  0.52893287
   0.33334020  0.16666471  0.41677351
   0.33334226  0.66667616  0.41677490
   0.83331972  0.16665911  0.41677429
   0.83332640  0.66666364  0.41677993
   0.16999293  0.33474576  0.63901735
   0.16653322  0.83384172  0.63960360
   0.66687110  0.33337849  0.63985655
   0.66623743  0.83261682  0.63946065
  -0.00292237  0.33247889  0.72367029
   0.91361552  0.16087823  0.72628466
Direct configuration=    13
   0.16666529  0.33332818  0.38827398
   0.16668771  0.83334794  0.38826812
   0.66665119  0.33330832  0.38826688
   0.66665772  0.83334516  0.38826781
  -0.00003761 -0.00010029  0.61141979
   0.00045245  0.50065095  0.61174507
   0.50042059  0.00050562  0.61158451
   0.49963844  0.49955642  0.61164312
   0.33340470  0.16671755  0.50008319
   0.33329521  0.66664417  0.49999205
   0.83334654  0.16677076  0.50012458
   0.83329035  0.66655016  0.49982413
   0.16665029  0.33331389  0.47100674
   0.16661008  0.83331893  0.47100711
   0.66669408  0.33338389  0.47099992
   0.66670970  0.83331820  0.47100653
  -0.00000839 -0.00000906  0.36012186
  -0.00000666  0.50000185  0.36012164
   0.50000152 -0.00000087  0.36012114
   0.50000814  0.50000520  0.36012088
   0.33329288  0.16616073  0.58313939
   0.33307414  0.66720205  0.58314624
   0.83360778  0.16691736  0.58334691
   0.83376109  0.66673797  0.58316491
  -0.00018293 -0.00037121  0.52899168
  -0.00004631  0.50027575  0.52898887
   0.49999165 -0.00006030  0.52898526
   0.50025910  0.50021368  0.52892857
   0.33334115  0.16666464  0.41675775
   0.33334265  0.66667698  0.41675796
   0.83331864  0.16665911  0.41675941
   0.83332617  0.66666301  0.41676119
   0.17004700  0.33475935  0.63903011
   0.16652858  0.83385428  0.63962696
   0.66688410  0.33337524  0.63988440
   0.66623761  0.83261630  0.63947919
  -0.00306514  0.33242785  0.72365910
   0.91360551  0.16084721  0.72638302
Direct configuration=    14
   0.16665669  0.33331657  0.38820094
   0.16670563  0.83336441  0.38819196
   0.66664179  0.33328370  0.38819041
   0.66665809  0.83336551  0.38819259
  -0.00004490 -0.00020619  0.61147096
   0.00049958  0.50078787  0.61181045
   0.50040711  0.00048130  0.61165465
   0.49974525  0.49963059  0.61169623
   0.33341262  0.16672836  0.50007027
   0.33328608  0.66663566  0.49999287
   0.83336063  0.16679337  0.50011296
   0.83328420  0.66653303  0.49982686
   0.16663401  0.33329699  0.47101829
   0.16662363  0.83333550  0.47100865
   0.66669040  0.33336177  0.47100474
   0.66671744  0.83334320  0.47100919
  -0.00001135 -0.00001542  0.36003711
  -0.00000749  0.50000634  0.36003704
   0.50000030 -0.00000301  0.36003562
   0.50001340  0.50000939  0.36003623
   0.33333103  0.16609992  0.58315775
   0.33304593  0.66728559  0.58317385
   0.83365909  0.16697672  0.58339959
   0.83381290  0.66672531  0.58319968
  -0.00019421 -0.00035599  0.52897966
  -0.00006056  0.50025023  0.52898260
   0.50004356 -0.00002229  0.52897396
   0.50024835  0.50020321  0.52891568
   0.33334402  0.16666444  0.41671047
   0.33334381  0.66667944  0.41670714
   0.83331540  0.16665913  0.41671477
   0.83332547  0.66666112  0.41670497
   0.17020921  0.33480011  0.63906838
   0.16651465  0.83389197  0.63969706
   0.66692310  0.33336549  0.63996793
   0.66623813  0.83261477  0.63953482
  -0.00349346  0.33227475  0.72362554
   0.91357545  0.16075417  0.72667812
Direct configuration=    15
   0.16663951  0.33329335  0.38805487
   0.16674147  0.83339736  0.38803964
   0.66662298  0.33323446  0.38803746
   0.66665882  0.83340622  0.38804215
  -0.00005947 -0.00041800  0.61157329
   0.00059383  0.50106169  0.61194122
   0.50038015  0.00043267  0.61179493
   0.49995887  0.49977892  0.61180246
   0.33342847  0.16674998  0.50004441
   0.33326784  0.66661865  0.49999450
   0.83338881  0.16683858  0.50008970
   0.83327188  0.66649875  0.49983232
   0.16660144  0.33326319  0.47104137
   0.16665074  0.83336863  0.47101173
   0.66668306  0.33331752  0.47101438
   0.66673292  0.83339321  0.47101452
  -0.00001726 -0.00002815  0.35986762
  -0.00000913  0.50001531  0.35986785
   0.49999786 -0.00000729  0.35986456
   0.50002390  0.50001777  0.35986692
   0.33340734  0.16597830  0.58319446
   0.33298951  0.66745267  0.58322908
   0.83376172  0.16709542  0.58350497
   0.83391652  0.66669998  0.58326921
  -0.00021676 -0.00032554  0.52895560
  -0.00008907  0.50019920  0.52897005
   0.50014739  0.00005373  0.52895138
   0.50022685  0.50018225  0.52888989
   0.33334976  0.16666404  0.41661591
   0.33334613  0.66668436  0.41660551
   0.83330893  0.16665916  0.41662550
   0.83332408  0.66665734  0.41659252
   0.17053363  0.33488162  0.63914493
   0.16648678  0.83396734  0.63983727
   0.66700109  0.33334598  0.64013501
   0.66623918  0.83261170  0.63964608
  -0.00435011  0.33196854  0.72355842
   0.91351534  0.16056808  0.72726832
Direct configuration=    16
   0.16660513  0.33324692  0.38776271
   0.16681316  0.83346325  0.38773499
   0.66658536  0.33313597  0.38773155
   0.66666027  0.83348764  0.38774128
  -0.00008861 -0.00084162  0.61177797
   0.00078234  0.50160935  0.61220276
   0.50032624  0.00033540  0.61207549
   0.50038611  0.50007559  0.61201491
   0.33346017  0.16679322  0.49999270
   0.33323135  0.66658463  0.49999775
   0.83344518  0.16692900  0.50004320
   0.83324724  0.66643021  0.49984324
   0.16653630  0.33319560  0.47108754
   0.16670495  0.83343490  0.47101788
   0.66666837  0.33322902  0.47103365
   0.66676387  0.83349323  0.47102517
  -0.00002910 -0.00005361  0.35952863
  -0.00001243  0.50003324  0.35952947
   0.49999297 -0.00001584  0.35952246
   0.50004491  0.50003452  0.35952830
   0.33355996  0.16573505  0.58326789
   0.33287666  0.66778683  0.58333953
   0.83396697  0.16733284  0.58371572
   0.83412376  0.66664931  0.58340827
  -0.00026186 -0.00026463  0.52890750
  -0.00014609  0.50009712  0.52894495
   0.50035506  0.00020576  0.52890620
   0.50018386  0.50014035  0.52883831
   0.33336123  0.16666325  0.41642680
   0.33335077  0.66669420  0.41640224
   0.83329598  0.16665922  0.41644695
   0.83332129  0.66664979  0.41636764
   0.17118248  0.33504466  0.63929802
   0.16643105  0.83411809  0.64011767
   0.66715708  0.33330696  0.64046915
   0.66624128  0.83260556  0.63986859
  -0.00606339  0.33135613  0.72342418
   0.91339511  0.16019590  0.72844871
Direct configuration=    17
   0.16653639  0.33315405  0.38717841
   0.16695654  0.83359503  0.38712569
   0.66651013  0.33293900  0.38711974
   0.66666318  0.83365049  0.38713954
  -0.00014689 -0.00168885  0.61218732
   0.00115935  0.50270466  0.61272584
   0.50021840  0.00014087  0.61263661
   0.50124059  0.50066893  0.61243980
   0.33352357  0.16687970  0.49988929
   0.33315838  0.66651659  0.50000427
   0.83355792  0.16710985  0.49995019
   0.83319798  0.66629313  0.49986508
   0.16640602  0.33306041  0.47117988
   0.16681338  0.83356743  0.47103020
   0.66663899  0.33305203  0.47107220
   0.66682578  0.83369326  0.47104647
  -0.00005277 -0.00010453  0.35885066
  -0.00001902  0.50006912  0.35885271
   0.49998320 -0.00003295  0.35883825
   0.50008693  0.50006802  0.35885106
   0.33386521  0.16524856  0.58341475
   0.33265097  0.66845515  0.58356044
   0.83437747  0.16780767  0.58413722
   0.83453824  0.66654798  0.58368639
  -0.00035206 -0.00014283  0.52881128
  -0.00026013  0.49989296  0.52889476
   0.50077038  0.00050981  0.52881585
   0.50009786  0.50005653  0.52873515
   0.33338416  0.16666165  0.41604856
   0.33336006  0.66671388  0.41599571
   0.83327008  0.16665934  0.41608986
   0.83331571  0.66663469  0.41591787
   0.17248016  0.33537073  0.63960421
   0.16631958  0.83441959  0.64067849
   0.66746904  0.33322892  0.64113744
   0.66624548  0.83259328  0.64031362
  -0.00948995  0.33013130  0.72315571
   0.91315467  0.15945154  0.73080949
Direct configuration=    18
   0.16656489  0.33319255  0.38742065
   0.16689710  0.83354039  0.38737830
   0.66654132  0.33302066  0.38737339
   0.66666197  0.83358297  0.38738901
  -0.00012272 -0.00133760  0.61201761
   0.00100305  0.50225055  0.61250898
   0.50026311  0.00022152  0.61240398
   0.50088633  0.50042294  0.61226365
   0.33349729  0.16684384  0.49993216
   0.33318864  0.66654480  0.50000157
   0.83351118  0.16703487  0.49998875
   0.83321840  0.66634996  0.49985602
   0.16646004  0.33311646  0.47114160
   0.16676843  0.83351248  0.47102509
   0.66665117  0.33312541  0.47105622
   0.66680012  0.83361033  0.47103764
  -0.00004295 -0.00008342  0.35913174
  -0.00001629  0.50005425  0.35913328
   0.49998725 -0.00002586  0.35912192
   0.50006951  0.50005413  0.35913183
   0.33373866  0.16545025  0.58335386
   0.33274454  0.66817807  0.58346885
   0.83420728  0.16761081  0.58396247
   0.83436640  0.66658999  0.58357109
  -0.00031467 -0.00019333  0.52885117
  -0.00021285  0.49997760  0.52891557
   0.50059819  0.00038375  0.52885331
   0.50013352  0.50009128  0.52877792
   0.33337465  0.16666231  0.41620537
   0.33335621  0.66670572  0.41616425
   0.83328082  0.16665929  0.41623790
   0.83331802  0.66664095  0.41610434
   0.17194215  0.33523555  0.63947727
   0.16636579  0.83429460  0.64044598
   0.66733970  0.33326128  0.64086038
   0.66624374  0.83259837  0.64012911
  -0.00806934  0.33063910  0.72326701
   0.91325435  0.15976014  0.72983074
Direct configuration=    19
   0.16656309  0.33319180  0.38737219
   0.16689929  0.83354157  0.38732860
   0.66654131  0.33301773  0.38732275
   0.66666184  0.83358610  0.38734053
  -0.00011668 -0.00139043  0.61205009
   0.00103354  0.50232484  0.61255440
   0.50026489  0.00021511  0.61244761
   0.50095408  0.50046640  0.61229732
   0.33350249  0.16683940  0.49992339
   0.33318872  0.66655444  0.50000051
   0.83351248  0.16704100  0.49998325
   0.83321978  0.66634636  0.49985396
   0.16645234  0.33310939  0.47114711
   0.16677507  0.83352004  0.47102534
   0.66665069  0.33311674  0.47105737
   0.66680386  0.83362170  0.47103806
  -0.00004250 -0.00008275  0.35907206
  -0.00001654  0.50005371  0.35907382
   0.49998747 -0.00002514  0.35906117
   0.50006915  0.50005338  0.35907245
   0.33377177  0.16541744  0.58336962
   0.33273272  0.66823205  0.58349108
   0.83424500  0.16765083  0.58400060
   0.83439465  0.66657975  0.58359703
  -0.00032451 -0.00018626  0.52884300
  -0.00022177  0.49996231  0.52890923
   0.50064034  0.00040999  0.52884389
   0.50012891  0.50008926  0.52877078
   0.33337653  0.16666393  0.41616797
   0.33335525  0.66670487  0.41612578
   0.83328079  0.16666165  0.41620207
   0.83331735  0.66663841  0.41606309
   0.17204781  0.33525325  0.63950827
   0.16635584  0.83432165  0.64049720
   0.66736065  0.33326128  0.64091770
   0.66624815  0.83259319  0.64016879
  -0.00855826  0.33018184  0.72325378
   0.91339941  0.16004018  0.73003814
Direct configuration=    20
   0.16656092  0.33319089  0.38731360
   0.16690194  0.83354300  0.38726853
   0.66654129  0.33301419  0.38726155
   0.66666169  0.83358987  0.38728191
  -0.00010938 -0.00145429  0.61208934
   0.00107041  0.50241462  0.61260930
   0.50026704  0.00020735  0.61250034
   0.50103597  0.50051894  0.61233803
   0.33350879  0.16683404  0.49991278
   0.33318882  0.66656609  0.49999923
   0.83351406  0.16704840  0.49997661
   0.83322144  0.66634201  0.49985147
   0.16644304  0.33310085  0.47115378
   0.16678310  0.83352917  0.47102564
   0.66665010  0.33310627  0.47105875
   0.66680838  0.83363543  0.47103858
  -0.00004196 -0.00008195  0.35899992
  -0.00001686  0.50005306  0.35900194
   0.49998775 -0.00002428  0.35898775
   0.50006871  0.50005248  0.35900067
   0.33381180  0.16537777  0.58338867
   0.33271844  0.66829730  0.58351794
   0.83429058  0.16769921  0.58404668
   0.83442880  0.66656736  0.58362839
  -0.00033641 -0.00017772  0.52883313
  -0.00023254  0.49994382  0.52890155
   0.50069129  0.00044171  0.52883251
   0.50012334  0.50008683  0.52876214
   0.33337880  0.16666589  0.41612276
   0.33335409  0.66670383  0.41607927
   0.83328075  0.16666450  0.41615876
   0.83331655  0.66663533  0.41601324
   0.17217552  0.33527465  0.63954573
   0.16634381  0.83435435  0.64055911
   0.66738598  0.33326127  0.64098699
   0.66625348  0.83258693  0.64021675
  -0.00914924  0.32962914  0.72323779
   0.91357474  0.16037867  0.73028883
Direct configuration=    21
   0.16655657  0.33318908  0.38719643
   0.16690725  0.83354585  0.38714838
   0.66654125  0.33300710  0.38713913
   0.66666137  0.83359743  0.38716469
  -0.00009478 -0.00158201  0.61216786
   0.00114413  0.50259420  0.61271910
   0.50027134  0.00019184  0.61260580
   0.50119976  0.50062401  0.61241944