CeO2                                    
           1
     7.707464    0.000000    0.000000
    -3.853732    6.674860    0.000000
     0.000000    0.000000   28.319031
   Ce   O    C    O 
  12  24   1   1
Direct configuration=     1
   0.16666700  0.33333300  0.38888900
   0.16666700  0.83333300  0.38888900
   0.66666700  0.33333300  0.38888900
   0.66666700  0.83333300  0.38888900
   0.00000000  0.00000000  0.61111100
   0.00000000  0.50000000  0.61111100
   0.50000000  0.00000000  0.61111100
   0.50000000  0.50000000  0.61111100
   0.33333300  0.16666700  0.50000000
   0.33333300  0.66666700  0.50000000
   0.83333300  0.16666700  0.50000000
   0.83333300  0.66666700  0.50000000
   0.16666700  0.33333300  0.47222200
   0.16666700  0.83333300  0.47222200
   0.66666700  0.33333300  0.47222200
   0.66666700  0.83333300  0.47222200
   0.00000000  0.00000000  0.36111100
   0.00000000  0.50000000  0.36111100
   0.50000000  0.00000000  0.36111100
   0.50000000  0.50000000  0.36111100
   0.33333300  0.16666700  0.58333300
   0.33333300  0.66666700  0.58333300
   0.83333300  0.16666700  0.58333300
   0.83333300  0.66666700  0.58333300
   0.00000000  0.00000000  0.52777800
   0.00000000  0.50000000  0.52777800
   0.50000000  0.00000000  0.52777800
   0.50000000  0.50000000  0.52777800
   0.33333300  0.16666700  0.41666700
   0.33333300  0.66666700  0.41666700
   0.83333300  0.16666700  0.41666700
   0.83333300  0.66666700  0.41666700
   0.16666700  0.33333300  0.63888900
   0.16666700  0.83333300  0.63888900
   0.66666700  0.33333300  0.63888900
   0.66666700  0.83333300  0.63888900
   0.44444400  0.50000000  0.72389500
   0.29627600  0.50000000  0.72389500
Direct configuration=     2
   0.16666798  0.33333413  0.38862107
   0.16666671  0.83333197  0.38862175
   0.66666762  0.33333447  0.38862031
   0.66666715  0.83333186  0.38862096
   0.00009552  0.00013754  0.61132931
  -0.00029119  0.49983403  0.61138294
   0.50007169  0.00031801  0.61134464
   0.50068375  0.49988820  0.61118723
   0.33332086  0.16665708  0.50001893
   0.33332050  0.66666573  0.50000830
   0.83334341  0.16667090  0.50001735
   0.83335065  0.66667614  0.50001807
   0.16666753  0.33333487  0.47178743
   0.16666546  0.83333084  0.47178861
   0.66666910  0.33333556  0.47179008
   0.66666689  0.83333051  0.47178945
   0.00000173  0.00000121  0.36090317
   0.00000952  0.50000403  0.36090251
   0.49999569 -0.00000835  0.36090232
   0.49999541  0.50000325  0.36090230
   0.33334725  0.16664091  0.58311128
   0.33336059  0.66670802  0.58312648
   0.83326050  0.16659216  0.58310982
   0.83335008  0.66670809  0.58310490
  -0.00001025 -0.00001389  0.52819623
   0.00000362  0.50000900  0.52819636
   0.49999912 -0.00001073  0.52819814
   0.50001123  0.50000917  0.52819148
   0.33332504  0.16666262  0.41687899
   0.33333239  0.66666579  0.41687921
   0.83333928  0.16666391  0.41687947
   0.83333886  0.66667504  0.41687990
   0.16540747  0.33180602  0.63848100
   0.16677881  0.83341726  0.63911016
   0.66670093  0.33302195  0.63897227
   0.66657842  0.83346040  0.63911910
   0.44460260  0.50024747  0.72405052
   0.29675811  0.50122481  0.72474796
Direct configuration=     3
   0.16666929  0.33333566  0.38826065
   0.16666631  0.83333059  0.38826224
   0.66666845  0.33333644  0.38825888
   0.66666734  0.83333032  0.38826040
   0.00022401  0.00032256  0.61162299
  -0.00068289  0.49961076  0.61174876
   0.50016813  0.00074579  0.61165893
   0.50160351  0.49973782  0.61128978
   0.33330452  0.16664374  0.50004439
   0.33330370  0.66666401  0.50001946
   0.83335742  0.16667615  0.50004069
   0.83337438  0.66668844  0.50004237
   0.16666824  0.33333739  0.47120285
   0.16666338  0.83332793  0.47120562
   0.66667194  0.33333901  0.47120907
   0.66666675  0.83332715  0.47120760
   0.00000406  0.00000284  0.36062361
   0.00002232  0.50000945  0.36062206
   0.49998990 -0.00001959  0.36062161
   0.49998924  0.50000762  0.36062157
   0.33336641  0.16660583  0.58281302
   0.33339770  0.66676320  0.58284866
   0.83316297  0.16649148  0.58280960
   0.83337306  0.66676337  0.58279807
  -0.00002403 -0.00003257  0.52875882
   0.00000849  0.50002110  0.52875914
   0.49999793 -0.00002516  0.52876331
   0.50002633  0.50002152  0.52874768
   0.33331434  0.16665673  0.41716416
   0.33333158  0.66666417  0.41716468
   0.83334772  0.16665974  0.41716529
   0.83334674  0.66668585  0.41716629
   0.16371317  0.32975197  0.63793217
   0.16692921  0.83353060  0.63940765
   0.66674657  0.33260354  0.63908429
   0.66645926  0.83363177  0.63942862
   0.44481594  0.50058036  0.72425972
   0.29740663  0.50287240  0.72589534
Direct configuration=     4
   0.16665961  0.33332314  0.38820469
   0.16666503  0.83333754  0.38820670
   0.66667093  0.33333089  0.38820710
   0.66667988  0.83334271  0.38820628
  -0.00004158  0.00023376  0.61165085
  -0.00026734  0.49965022  0.61170067
   0.49999655  0.00010595  0.61168306
   0.50181259  0.50009606  0.61114932
   0.33322209  0.16644987  0.49997652
   0.33321611  0.66676385  0.50004301
   0.83333166  0.16666525  0.50003288
   0.83357947  0.66679077  0.49993562
   0.16671833  0.33335170  0.47090628
   0.16665122  0.83333353  0.47090600
   0.66665007  0.33337186  0.47091332
   0.66665800  0.83327693  0.47091094
   0.00000474 -0.00000056  0.36027369
   0.00001839  0.50001151  0.36027340
   0.49999212 -0.00001470  0.36027281
   0.49999641  0.50000802  0.36027300
   0.33383679  0.16668503  0.58284614
   0.33348753  0.66672481  0.58296493
   0.83260921  0.16633985  0.58281327
   0.83322140  0.66650502  0.58288746
  -0.00000061 -0.00008356  0.52902451
  -0.00006917  0.50004882  0.52907701
   0.49997011  0.00002476  0.52903572
   0.50016779  0.50000387  0.52903693
   0.33332512  0.16665943  0.41704604
   0.33333295  0.66666787  0.41704343
   0.83334267  0.16666441  0.41704002
   0.83334641  0.66667864  0.41704789
   0.16281925  0.32856711  0.63772884
   0.16697024  0.83348785  0.63976849
   0.66686871  0.33251030  0.63930673
   0.66628826  0.83350145  0.63977315
   0.44241485  0.50098424  0.72447858
   0.30057422  0.50460181  0.72714471
Direct configuration=     5
   0.16666669  0.33333229  0.38824559
   0.16666597  0.83333246  0.38824729
   0.66666912  0.33333495  0.38824495
   0.66667072  0.83333365  0.38824584
   0.00015254  0.00029866  0.61163048
  -0.00057107  0.49962138  0.61173582
   0.50012196  0.00057361  0.61166543
   0.50165977  0.49983422  0.61125198
   0.33328234  0.16659157  0.50002613
   0.33328013  0.66669088  0.50002580
   0.83335049  0.16667322  0.50003859
   0.83342957  0.66671598  0.50001364
   0.16668172  0.33334124  0.47112304
   0.16666011  0.83332944  0.47112499
   0.66666605  0.33334785  0.47112949
   0.66666439  0.83331364  0.47112777
   0.00000424  0.00000193  0.36052945
   0.00002126  0.50001000  0.36052823
   0.49999049 -0.00001827  0.36052775
   0.49999117  0.50000773  0.36052777
   0.33349299  0.16662714  0.58282193
   0.33342187  0.66675287  0.58287995
   0.83301395  0.16645068  0.58281058
   0.83333225  0.66669385  0.58282213
  -0.00001773 -0.00004629  0.52883031
  -0.00001241  0.50002856  0.52884468
   0.49999044 -0.00001172  0.52883661
   0.50006439  0.50001677  0.52882551
   0.33331724  0.16665746  0.41713237
   0.33333195  0.66666516  0.41713205
   0.83334636  0.16666100  0.41713158
   0.83334665  0.66668391  0.41713443
   0.16347262  0.32943313  0.63787746
   0.16694025  0.83351909  0.63950475
   0.66677944  0.33257845  0.63914415
   0.66641325  0.83359670  0.63952133
   0.44416981  0.50068904  0.72431861
   0.29825902  0.50333778  0.72623154
Direct configuration=     6
   0.16666077  0.33332645  0.38824769
   0.16666765  0.83333616  0.38824766
   0.66666989  0.33332937  0.38824913
   0.66667511  0.83334146  0.38824890
  -0.00003044  0.00021113  0.61161596
  -0.00029198  0.49965840  0.61166435
   0.50000823  0.00014187  0.61164991
   0.50168801  0.50005461  0.61116196
   0.33323653  0.16647784  0.49998320
   0.33323223  0.66675059  0.50003715
   0.83332958  0.16666302  0.50003154
   0.83354779  0.66677572  0.49994425
   0.16671278  0.33335267  0.47101932
   0.16665198  0.83332981  0.47101817
   0.66665405  0.33336906  0.47102452
   0.66665692  0.83328128  0.47102298
   0.00000408 -0.00000124  0.36034311
   0.00001632  0.50001073  0.36034273
   0.49999193 -0.00001380  0.36034219
   0.49999665  0.50000699  0.36034248
   0.33378726  0.16667243  0.58288033
   0.33347456  0.66671995  0.58298998
   0.83266439  0.16635490  0.58284975
   0.83323840  0.66652940  0.58291817
  -0.00000207 -0.00007715  0.52891573
  -0.00005471  0.50004812  0.52896284
   0.49996604  0.00000937  0.52892402
   0.50015055  0.50000936  0.52892420
   0.33332432  0.16665800  0.41701677
   0.33333188  0.66666843  0.41701560
   0.83334161  0.16666407  0.41701188
   0.83334674  0.66667859  0.41701870
   0.16313565  0.32896370  0.63782611
   0.16694476  0.83347085  0.63969519
   0.66685936  0.33257409  0.63926968
   0.66632045  0.83349197  0.63969908
   0.44424498  0.50087404  0.72440964
   0.29856772  0.50428777  0.72692511
Direct configuration=     7
   0.16664924  0.33331505  0.38825178
   0.16667091  0.83334337  0.38824838
   0.66667141  0.33331851  0.38825729
   0.66668367  0.83335668  0.38825488
  -0.00038718  0.00004046  0.61158763
   0.00025216  0.49973058  0.61152502
   0.49978650 -0.00069988  0.61161965
   0.50174308  0.50048431  0.61098644
   0.33314723  0.16625612  0.49989950
   0.33313886  0.66686700  0.50005930
   0.83328881  0.16664313  0.50001779
   0.83377827  0.66689221  0.49980896
   0.16677333  0.33337496  0.47081709
   0.16663614  0.83333054  0.47080991
   0.66663064  0.33341040  0.47081988
   0.66664234  0.83321818  0.47081866
   0.00000377 -0.00000743  0.35997982
   0.00000668  0.50001216  0.35998106
   0.49999474 -0.00000507  0.35998043
   0.50000735  0.50000555  0.35998123
   0.33436098  0.16676074  0.58299419
   0.33357728  0.66665577  0.58320450
   0.83198288  0.16616818  0.58292611
   0.83305543  0.66620876  0.58310542
   0.00002846 -0.00013730  0.52908227
  -0.00013720  0.50008626  0.52919323
   0.49991846  0.00005050  0.52909443
   0.50031853  0.49999492  0.52911661
   0.33333814  0.16665907  0.41679138
   0.33333176  0.66667479  0.41678858
   0.83333236  0.16667005  0.41677850
   0.83334691  0.66666820  0.41679307
   0.16247869  0.32804848  0.63772601
   0.16695355  0.83337679  0.64006649
   0.66701517  0.33256558  0.63951444
   0.66613952  0.83328777  0.64004561
   0.44439154  0.50123472  0.72458712
   0.29916958  0.50613992  0.72827734
Direct configuration=     8
   0.16664970  0.33333196  0.38814409
   0.16669855  0.83334112  0.38812178
   0.66666928  0.33329752  0.38814525
   0.66665924  0.83336490  0.38814486
  -0.00049899 -0.00013830  0.61165061
   0.00019990  0.49965156  0.61157033
   0.49971363 -0.00083558  0.61173017
   0.50182509  0.50041971  0.61103691
   0.33315650  0.16622981  0.49989559
   0.33316101  0.66689187  0.50004899
   0.83324153  0.16660360  0.50001656
   0.83379980  0.66691724  0.49976394
   0.16679714  0.33341618  0.47082976
   0.16662772  0.83329665  0.47081062
   0.66664700  0.33343738  0.47082003
   0.66661869  0.83318470  0.47082608
   0.00000528 -0.00001645  0.35981644
   0.00000019  0.50001955  0.35981813
   0.49999144 -0.00000020  0.35981703
   0.50001758  0.50000510  0.35981921
   0.33461055  0.16672256  0.58303053
   0.33364359  0.66662009  0.58329303
   0.83158386  0.16596582  0.58293683
   0.83301256  0.66612258  0.58318004
   0.00002757 -0.00018284  0.52904201
  -0.00009622  0.50014987  0.52917139
   0.49982911 -0.00006191  0.52903443
   0.50039159  0.50005454  0.52906581
   0.33333617  0.16664015  0.41666533
   0.33332413  0.66668997  0.41667344
   0.83332562  0.16667114  0.41665453
   0.83336569  0.66667363  0.41666780
   0.16231605  0.32780024  0.63773563
   0.16693169  0.83327074  0.64022232
   0.66715074  0.33260688  0.63961312
   0.66605360  0.83315301  0.64019575
   0.44412966  0.50145353  0.72468290
   0.29980376  0.50723168  0.72909874
Direct configuration=     9
   0.16665108  0.33338269  0.38782102
   0.16678144  0.83333437  0.38774196
   0.66666288  0.33323456  0.38780911
   0.66658595  0.83338955  0.38781479
  -0.00083442 -0.00067455  0.61183956
   0.00004311  0.49941452  0.61170626
   0.49949501 -0.00124267  0.61206171
   0.50207112  0.50022592  0.61118830
   0.33318432  0.16615090  0.49988384
   0.33322746  0.66696650  0.50001809
   0.83309968  0.16648503  0.50001284
   0.83386436  0.66699232  0.49962890
   0.16686860  0.33353984  0.47086777
   0.16660246  0.83319500  0.47081276
   0.66669610  0.33351829  0.47082047
   0.66654772  0.83308426  0.47084832
   0.00000978 -0.00004350  0.35932632
  -0.00001926  0.50004171  0.35932933
   0.49998153  0.00001440  0.35932685
   0.50004828  0.50000377  0.35933317
   0.33535927  0.16660803  0.58313953
   0.33384255  0.66651306  0.58355862
   0.83038683  0.16535874  0.58296900
   0.83288397  0.66586402  0.58340390
   0.00002489 -0.00031948  0.52892122
   0.00002673  0.50034070  0.52910588
   0.49956104 -0.00039912  0.52885442
   0.50061077  0.50023339  0.52891339
   0.33333028  0.16658339  0.41628718
   0.33330125  0.66673550  0.41632803
   0.83330540  0.16667440  0.41628264
   0.83342204  0.66668992  0.41629200
   0.16182812  0.32705552  0.63776450
   0.16686612  0.83295259  0.64068983
   0.66755742  0.33273078  0.63990916
   0.66579582  0.83274872  0.64064615
   0.44334401  0.50210997  0.72497023
   0.30170629  0.51050694  0.73156296
Direct configuration=    10
   0.16665384  0.33348415  0.38717487
   0.16694724  0.83332088  0.38698232
   0.66665009  0.33310865  0.38713684
   0.66643937  0.83343885  0.38715467
  -0.00150528 -0.00174707  0.61221745
  -0.00027046  0.49894044  0.61197811
   0.49905778 -0.00205686  0.61272480
   0.50256318  0.49983833  0.61149108
   0.33323994  0.16599308  0.49986035
   0.33336037  0.66711576  0.49995628
   0.83281597  0.16624788  0.50000542
   0.83399350  0.66714249  0.49935881
   0.16701150  0.33378716  0.47094379
   0.16655195  0.83299169  0.47081702
   0.66679429  0.33368013  0.47082134
   0.66640580  0.83288337  0.47089280
   0.00001878 -0.00009761  0.35834608
  -0.00005817  0.50008605  0.35835174
   0.49996171  0.00004359  0.35834648
   0.50010968  0.50000110  0.35836108
   0.33685671  0.16637898  0.58335755
   0.33424046  0.66629900  0.58408980
   0.82799275  0.16414459  0.58303334
   0.83262678  0.66534692  0.58385162
   0.00001952 -0.00059276  0.52867965
   0.00027262  0.50072238  0.52897486
   0.49902492 -0.00107354  0.52849441
   0.50104913  0.50059111  0.52860856
   0.33331849  0.16646988  0.41553087
   0.33325547  0.66682656  0.41563720
   0.83326496  0.16668094  0.41553884
   0.83353473  0.66672249  0.41554041
   0.16085226  0.32556608  0.63782224
   0.16673497  0.83231629  0.64162485
   0.66837079  0.33297857  0.64050123
   0.66528028  0.83194015  0.64154697
   0.44177272  0.50342286  0.72554489
   0.30551135  0.51705747  0.73649138
Direct configuration=    11
   0.16668030  0.33345312  0.38691487
   0.16693122  0.83335742  0.38668410
   0.66661744  0.33312573  0.38685149
   0.66646489  0.83341897  0.38686770
  -0.00148236 -0.00203055  0.61231092
  -0.00078262  0.49864050  0.61212514
   0.49902511 -0.00185742  0.61290462
   0.50260823  0.49930885  0.61172539
   0.33340993  0.16610724  0.49981106
   0.33343971  0.66704278  0.49987293
   0.83268640  0.16620929  0.49992380
   0.83386269  0.66701396  0.49929257
   0.16694474  0.33376359  0.47097977
   0.16649183  0.83293533  0.47080742
   0.66687544  0.33367468  0.47083251
   0.66646945  0.83293096  0.47089192
   0.00000418 -0.00009461  0.35814670
  -0.00003653  0.50008468  0.35814549
   0.49996509  0.00001766  0.35813319
   0.50009881  0.50002232  0.35816889
   0.33682448  0.16605210  0.58342046
   0.33431782  0.66625790  0.58417048
   0.82767551  0.16365347  0.58306349
   0.83274330  0.66552199  0.58390269
   0.00001461 -0.00065282  0.52863696
   0.00038134  0.50077081  0.52889584
   0.49876303 -0.00146781  0.52835182
   0.50110576  0.50067914  0.52850360
   0.33330179  0.16643605  0.41538755
   0.33327051  0.66685489  0.41548934
   0.83324978  0.16664629  0.41540387
   0.83355273  0.66675392  0.41538881
   0.16086892  0.32547248  0.63800491
   0.16655692  0.83214261  0.64175280
   0.66863863  0.33303315  0.64062358
   0.66541405  0.83183898  0.64169685
   0.43908140  0.50396590  0.72577735
   0.30868547  0.51891645  0.73792912
Direct configuration=    12
   0.16666477  0.33347134  0.38706750
   0.16694063  0.83333597  0.38685918
   0.66663661  0.33311570  0.38701901
   0.66644991  0.83343064  0.38703617
  -0.00149582 -0.00186413  0.61225605
  -0.00048194  0.49881659  0.61203882
   0.49904429 -0.00197451  0.61279905
   0.50258178  0.49961969  0.61158783
   0.33331014  0.16604022  0.49984000
   0.33339313  0.66708562  0.49992186
   0.83276247  0.16623195  0.49997172
   0.83393949  0.66708942  0.49933146
   0.16698394  0.33377743  0.47095865
   0.16652712  0.83296842  0.47081305
   0.66682780  0.33367788  0.47082595
   0.66643208  0.83290302  0.47089244
   0.00001276 -0.00009637  0.35826375
  -0.00004923  0.50008548  0.35826657
   0.49996310  0.00003288  0.35825840
   0.50010519  0.50000986  0.35828172
   0.33684340  0.16624400  0.58338352
   0.33427240  0.66628203  0.58412312
   0.82786175  0.16394179  0.58304579
   0.83267490  0.66541921  0.58387271
   0.00001749 -0.00061756  0.52866203
   0.00031752  0.50074238  0.52894223
   0.49891678 -0.00123634  0.52843553
   0.50107251  0.50062746  0.52856522
   0.33331159  0.16645591  0.41547169
   0.33326168  0.66683826  0.41557614
   0.83325870  0.16666663  0.41548311
   0.83354216  0.66673547  0.41547781
   0.16085914  0.32552743  0.63789767
   0.16666145  0.83224457  0.64167769
   0.66848139  0.33300111  0.64055175
   0.66533552  0.83189838  0.64160886
   0.44066140  0.50364710  0.72564088
   0.30682204  0.51782510  0.73708507
Direct configuration=    13
   0.16669989  0.33340843  0.38683083
   0.16688417  0.83338712  0.38659139
   0.66659571  0.33316486  0.38674847
   0.66651471  0.83339306  0.38676215
  -0.00135849 -0.00208584  0.61230716
  -0.00113267  0.49847347  0.61218350
   0.49907497 -0.00158914  0.61290998
   0.50253268  0.49895199  0.61186762
   0.33353030  0.16621918  0.49976937
   0.33347663  0.66695036  0.49981610
   0.83263291  0.16621231  0.49985375
   0.83374025  0.66688854  0.49928796
   0.16685293  0.33368027  0.47098308
   0.16644487  0.83293408  0.47078415
   0.66692385  0.33363244  0.47083013
   0.66656516  0.83301961  0.47086778
  -0.00000963 -0.00007737  0.35816297
  -0.00001098  0.50007294  0.35815550
   0.49997428 -0.00000738  0.35813670
   0.50007652  0.50004091  0.35819027
   0.33648507  0.16580969  0.58343720
   0.33430144  0.66626293  0.58413694
   0.82789784  0.16347335  0.58308216
   0.83289328  0.66577214  0.58385773
   0.00001901 -0.00064353  0.52865309
   0.00041077  0.50072051  0.52885785
   0.49864600 -0.00166320  0.52830358
   0.50106386  0.50066434  0.52848024
   0.33329449  0.16643615  0.41540831
   0.33329603  0.66685979  0.41549052
   0.83324443  0.16661657  0.41542860
   0.83353998  0.66677149  0.41539969
   0.16109461  0.32570608  0.63817012
   0.16642065  0.83212176  0.64167576
   0.66870791  0.33302345  0.64061559
   0.66565339  0.83192622  0.64164429
   0.43961312  0.50391059  0.72564069
   0.30813007  0.51956182  0.73846879
Direct configuration=    14
   0.16677978  0.33326535  0.38629243
   0.16675575  0.83350349  0.38598223
   0.66650267  0.33327668  0.38613303
   0.66666212  0.83330756  0.38613879
  -0.00104612 -0.00259017  0.61242342
  -0.00261295  0.49769293  0.61251261
   0.49914474 -0.00071250  0.61316232
   0.50242100  0.49743310  0.61250408
   0.33403112  0.16662629  0.49960872
   0.33366659  0.66664267  0.49957550
   0.83233819  0.16616765  0.49958540
   0.83328703  0.66643159  0.49918900
   0.16655490  0.33345926  0.47103867
   0.16625775  0.83285595  0.47071841
   0.66714235  0.33352906  0.47083965
   0.66686789  0.83328483  0.47081168
  -0.00006054 -0.00003415  0.35793370
   0.00007603  0.50004442  0.35790284
   0.49999970 -0.00009896  0.35785985
   0.50001131  0.50011153  0.35798222
   0.33566994  0.16482172  0.58355932
   0.33436749  0.66621948  0.58416838
   0.82797994  0.16240772  0.58316489
   0.83339006  0.66657500  0.58382365
   0.00002245 -0.00070261  0.52863278
   0.00062290  0.50067076  0.52866591
   0.49803004 -0.00263423  0.52800342
   0.50104419  0.50074825  0.52828692
   0.33325557  0.16639121  0.41526412
   0.33337416  0.66690876  0.41529575
   0.83321197  0.16650270  0.41530462
   0.83353504  0.66685342  0.41522200
   0.16163027  0.32611249  0.63878988
   0.16587288  0.83184240  0.64167139
   0.66922322  0.33307426  0.64076080
   0.66637648  0.83198955  0.64172490
   0.43722849  0.50450999  0.72564026
   0.31110559  0.52351254  0.74161649
Direct configuration=    15
   0.16676012  0.33330056  0.38642492
   0.16678735  0.83347485  0.38613214
   0.66652556  0.33324916  0.38628448
   0.66662585  0.83332860  0.38629219
  -0.00112299 -0.00246606  0.61239481
  -0.00224867  0.49788501  0.61243162
   0.49912757 -0.00092823  0.61310022
   0.50244848  0.49780689  0.61234745
   0.33390787  0.16652611  0.49964825
   0.33361984  0.66671839  0.49963471
   0.83241072  0.16617864  0.49965144
   0.83339856  0.66654404  0.49921335
   0.16662824  0.33351365  0.47102499
   0.16630380  0.83287518  0.47073458
   0.66708858  0.33355450  0.47083731
   0.66679339  0.83321956  0.47082548
  -0.00004801 -0.00004479  0.35799012
   0.00005462  0.50005144  0.35796502
   0.49999345 -0.00007642  0.35792798
   0.50002736  0.50009415  0.35803342
   0.33587054  0.16506485  0.58352927
   0.33435124  0.66623017  0.58416064
   0.82795974  0.16266996  0.58314453
   0.83326781  0.66637742  0.58383203
   0.00002160 -0.00068807  0.52863778
   0.00057070  0.50068300  0.52871315
   0.49818162 -0.00239527  0.52807728
   0.50104903  0.50072760  0.52833450
   0.33326515  0.16640227  0.41529960
   0.33335493  0.66689671  0.41534368
   0.83321995  0.16653073  0.41533513
   0.83353626  0.66683326  0.41526573
   0.16149845  0.32601248  0.63863736
   0.16600768  0.83191115  0.64167246
   0.66909641  0.33306176  0.64072506
   0.66619854  0.83197396  0.64170506
   0.43781532  0.50436248  0.72564036
   0.31037334  0.52254031  0.74084188
Direct configuration=    16
   0.16674717  0.33326808  0.38634108
   0.16671640  0.83345815  0.38603810
   0.66655301  0.33330217  0.38614027
   0.66668331  0.83331031  0.38616136
  -0.00111417 -0.00268455  0.61235975
  -0.00229209  0.49773465  0.61243112
   0.49906377 -0.00125969  0.61301714
   0.50202670  0.49756888  0.61261104
   0.33389432  0.16649070  0.49956442
   0.33359659  0.66653918  0.49958628
   0.83238338  0.16606205  0.49954804
   0.83338262  0.66651220  0.49921951
   0.16644735  0.33326276  0.47091007
   0.16615445  0.83288949  0.47055951
   0.66714433  0.33344653  0.47071717
   0.66704278  0.83337492  0.47064860
  -0.00005621  0.00001037  0.35786540
   0.00006819  0.49999585  0.35783590
   0.50002834 -0.00007661  0.35777873
   0.49998363  0.50008717  0.35792302
   0.33543315  0.16466904  0.58363778
   0.33430896  0.66613398  0.58419020
   0.82825972  0.16234029  0.58323750
   0.83337360  0.66652850  0.58380705
   0.00011402 -0.00065272  0.52864839
   0.00047687  0.50046221  0.52866501
   0.49795090 -0.00267807  0.52797616
   0.50098534  0.50050895  0.52831788
   0.33330733  0.16646246  0.41517362
   0.33341479  0.66686953  0.41517048
   0.83320261  0.16649837  0.41520549
   0.83345127  0.66679639  0.41510460
   0.16209001  0.32656736  0.63911915
   0.16566589  0.83175507  0.64160131
   0.66924998  0.33302948  0.64081067
   0.66666115  0.83201246  0.64168452
   0.43597671  0.50464413  0.72552952
   0.31234382  0.52475993  0.74265417
Direct configuration=    17
   0.16670918  0.33317277  0.38609506
   0.16650820  0.83340916  0.38576214
   0.66663353  0.33345770  0.38571710
   0.66685194  0.83325665  0.38577747
  -0.00108828 -0.00332564  0.61225689
  -0.00241952  0.49729344  0.61242964
   0.49887655 -0.00223231  0.61277335
   0.50078908  0.49687052  0.61338449
   0.33385455  0.16638682  0.49931845
   0.33352835  0.66601332  0.49944416
   0.83230319  0.16571993  0.49924464
   0.83333583  0.66641876  0.49923760
   0.16591655  0.33252657  0.47057287
   0.16571621  0.83293149  0.47004578
   0.66730790  0.33312972  0.47036466
   0.66777456  0.83383076  0.47012956
  -0.00008025  0.00017222  0.35749942
   0.00010802  0.49983273  0.35745702
   0.50013071 -0.00007716  0.35734077
   0.49985532  0.50006669  0.35759909
   0.33414975  0.16350765  0.58395619
   0.33418492  0.66585174  0.58427693
   0.82913995  0.16137297  0.58351028
   0.83368402  0.66697182  0.58373374
   0.00038519 -0.00054898  0.52867953
   0.00020157  0.49981436  0.52852375
   0.49727389 -0.00350789  0.52767944
   0.50079845  0.49986737  0.52826913
   0.33343112  0.16663908  0.41480396
   0.33359045  0.66678978  0.41466227
   0.83315172  0.16640342  0.41482508
   0.83320189  0.66668823  0.41463182
   0.16382583  0.32819555  0.64053287
   0.16466298  0.83129711  0.64139253
   0.66970061  0.33293478  0.64106186
   0.66801859  0.83212542  0.64162422
   0.43058173  0.50547056  0.72520426
   0.31812574  0.53127289  0.74797195
Direct configuration=    18
   0.16673438  0.33323599  0.38625826
   0.16664631  0.83344166  0.38594520
   0.66658012  0.33335453  0.38599781
   0.66674008  0.83329225  0.38603213
  -0.00110545 -0.00290036  0.61232513
  -0.00233499  0.49758612  0.61243062
   0.49900074 -0.00158711  0.61293507
   0.50161007  0.49733379  0.61287141
   0.33388093  0.16645573  0.49948162
   0.33357361  0.66636216  0.49953843
   0.83235639  0.16594688  0.49944591
   0.83336687  0.66648074  0.49922560
   0.16626866  0.33301493  0.47079656
   0.16600692  0.83290363  0.47038657
   0.66719939  0.33333988  0.47059850
   0.66728912  0.83352837  0.47047387
  -0.00006430  0.00006486  0.35774220
   0.00008160  0.49994094  0.35770835
   0.50006280 -0.00007679  0.35763129
   0.49994044  0.50008027  0.35781398
   0.33500111  0.16427808  0.58374497
   0.33426721  0.66603897  0.58421940
   0.82855604  0.16201466  0.58332933
   0.83347810  0.66667774  0.58378237
   0.00020530 -0.00061779  0.52865887
   0.00038420  0.50024412  0.52861745
   0.49772299 -0.00295742  0.52787627
   0.50092243  0.50029297  0.52830147
   0.33334900  0.16652192  0.41504918
   0.33347392  0.66684268  0.41499940
   0.83318548  0.16646640  0.41507743
   0.83336732  0.66675998  0.41494545
   0.16267435  0.32711547  0.63959506
   0.16532828  0.83160091  0.64153103
   0.66940168  0.33299760  0.64089523
   0.66711811  0.83205049  0.64166422
   0.43416057  0.50492234  0.72542002
   0.31429022  0.52695242  0.74444433
Direct configuration=    19
   0.16672708  0.33321768  0.38621099
   0.16660631  0.83343225  0.38589218
   0.66659559  0.33338441  0.38591651
   0.66677248  0.83328194  0.38595837
  -0.00110048 -0.00302354  0.61230536
  -0.00235947  0.49750135  0.61243034
   0.49896477 -0.00177398  0.61288823
   0.50137228  0.49719961  0.61302002
   0.33387329  0.16643577  0.49943436
   0.33356050  0.66626112  0.49951113
   0.83234098  0.16588114  0.49938761
   0.83335788  0.66646279  0.49922907
   0.16616668  0.33287348  0.47073177
   0.16592272  0.83291170  0.47028786
   0.66723082  0.33327901  0.47053077
   0.66742973  0.83361595  0.47037414
  -0.00006892  0.00009595  0.35767188
   0.00008925  0.49990960  0.35763556
   0.50008247 -0.00007690  0.35754715
   0.49991578  0.50007634  0.35775174
   0.33475453  0.16405493  0.58380614
   0.33424337  0.66598474  0.58423606
   0.82872516  0.16182880  0.58338174
   0.83353774  0.66676292  0.58376829
   0.00025741 -0.00059786  0.52866486
   0.00033130  0.50011964  0.52859031
   0.49759292 -0.00311686  0.52781926
   0.50088652  0.50016970  0.52829210
   0.33337279  0.16655585  0.41497816
   0.33350767  0.66682736  0.41490176
   0.83317570  0.16644816  0.41500434
   0.83331940  0.66673920  0.41485461
   0.16300786  0.32742830  0.63986668
   0.16513558  0.83151292  0.64149092
   0.66948826  0.33297941  0.64094349
   0.66737893  0.83207219  0.64165263
   0.43312400  0.50508112  0.72535753
   0.31540114  0.52820380  0.74546607
Direct configuration=    20
   0.16672166  0.33321293  0.38619720
   0.16659137  0.83342457  0.38587746
   0.66660527  0.33339491  0.38588902
   0.66678346  0.83327935  0.38593404
  -0.00110169 -0.00306940  0.61229580
  -0.00234077  0.49747694  0.61242468
   0.49894782 -0.00187845  0.61286115
   0.50126492  0.49716611  0.61307921
   0.33385932  0.16641872  0.49941412
   0.33355104  0.66621692  0.49950013
   0.83234030  0.16584932  0.49936368
   0.83335961  0.66646119  0.49923067
   0.16612576  0.33281241  0.47069976
   0.16588624  0.83291392  0.47024292
   0.66724075  0.33325199  0.47049847
   0.66748740  0.83364819  0.47032893
  -0.00006875  0.00011011  0.35764217
   0.00009036  0.49989518  0.35760524
   0.50009087 -0.00007383  0.35751190
   0.49990544  0.50007144  0.35772509
   0.33465987  0.16397506  0.58383226
   0.33423002  0.66595566  0.58424300
   0.82880545  0.16176757  0.58340379
   0.83354923  0.66677629  0.58376189
   0.00028291 -0.00058751  0.52866595
   0.00030375  0.50006013  0.52858102
   0.49754600 -0.00317216  0.52779891
   0.50086574  0.50010748  0.52829166
   0.33338562  0.16657313  0.41494738
   0.33352088  0.66681801  0.41486072
   0.83317227  0.16644331  0.41497180
   0.83329658  0.66672559  0.41481506
   0.16315922  0.32757543  0.63998441
   0.16505755  0.83147066  0.64147173
   0.66951750  0.33296641  0.64096261
   0.66748047  0.83207607  0.64164565
   0.43248964  0.50518053  0.72535376
   0.31605693  0.52870584  0.74587675
Direct configuration=    21
   0.16670541  0.33319870  0.38615582
   0.16654656  0.83340154  0.38583330
   0.66663430  0.33342642  0.38580653
   0.66681640  0.83327157  0.38586106
  -0.00110531 -0.00320697  0.61226712
  -0.00228467  0.49740371  0.61240771
   0.49889695 -0.00219186  0.61277991
   0.50094285  0.49706562  0.61325678