CeO2                                    
           1
     7.707464    0.000000    0.000000
    -3.853732    6.674860    0.000000
     0.000000    0.000000   28.319031
   Ce   O    C    O 
  12  24   1   1
Direct configuration=     1
   0.16666700  0.33333300  0.38888900
   0.16666700  0.83333300  0.38888900
   0.66666700  0.33333300  0.38888900
   0.66666700  0.83333300  0.38888900
   0.00000000  0.00000000  0.61111100
   0.00000000  0.50000000  0.61111100
   0.50000000  0.00000000  0.61111100
   0.50000000  0.50000000  0.61111100
   0.33333300  0.16666700  0.50000000
   0.33333300  0.66666700  0.50000000
   0.83333300  0.16666700  0.50000000
   0.83333300  0.66666700  0.50000000
   0.16666700  0.33333300  0.47222200
   0.16666700  0.83333300  0.47222200
   0.66666700  0.33333300  0.47222200
   0.66666700  0.83333300  0.47222200
   0.00000000  0.00000000  0.36111100
   0.00000000  0.50000000  0.36111100
   0.50000000  0.00000000  0.36111100
   0.50000000  0.50000000  0.36111100
   0.33333300  0.16666700  0.58333300
   0.33333300  0.66666700  0.58333300
   0.83333300  0.16666700  0.58333300
   0.83333300  0.66666700  0.58333300
   0.00000000  0.00000000  0.52777800
   0.00000000  0.50000000  0.52777800
   0.50000000  0.00000000  0.52777800
   0.50000000  0.50000000  0.52777800
   0.33333300  0.16666700  0.41666700
   0.33333300  0.66666700  0.41666700
   0.83333300  0.16666700  0.41666700
   0.83333300  0.66666700  0.41666700
   0.16666700  0.33333300  0.63888900
   0.16666700  0.83333300  0.63888900
   0.66666700  0.33333300  0.63888900
   0.66666700  0.83333300  0.63888900
   0.22222200  0.16666700  0.76422100
   0.22222200  0.16666700  0.72389500
Direct configuration=     2
   0.16666617  0.33333446  0.38860470
   0.16666697  0.83333185  0.38860451
   0.66666742  0.33333301  0.38860423
   0.66666669  0.83333355  0.38860458
   0.00026904  0.00023463  0.61140318
   0.00020351  0.49995651  0.61134385
   0.49990896 -0.00002882  0.61133141
   0.49976587  0.49987298  0.61132837
   0.33332448  0.16666487  0.49999615
   0.33332231  0.66665951  0.49999905
   0.83334519  0.16667314  0.49999838
   0.83334263  0.66667101  0.49999526
   0.16666536  0.33333387  0.47180046
   0.16666815  0.83333273  0.47180071
   0.66666784  0.33333190  0.47180162
   0.66666556  0.83333474  0.47180211
   0.00000242  0.00000101  0.36090904
   0.00000250  0.50000182  0.36090903
   0.49999742 -0.00000140  0.36090887
   0.49999784  0.49999948  0.36090873
   0.33335612  0.16665510  0.58311678
   0.33342632  0.66675852  0.58311287
   0.83324949  0.16659142  0.58311686
   0.83330321  0.66667748  0.58311967
  -0.00000875 -0.00000733  0.52820466
  -0.00000596  0.50000084  0.52819905
   0.50000362  0.00000130  0.52820832
   0.50000752  0.50000442  0.52820680
   0.33333093  0.16666478  0.41689066
   0.33333078  0.66666668  0.41689134
   0.83333486  0.16666799  0.41689186
   0.83333635  0.66666850  0.41689127
   0.16642667  0.33419952  0.63878650
   0.16667197  0.83309859  0.63907561
   0.66666493  0.33331410  0.63913692
   0.66665165  0.83333383  0.63914262
   0.22223705  0.16682104  0.76466770
   0.22231090  0.16584636  0.72380224
Direct configuration=     3
   0.16666614  0.33333450  0.38859606
   0.16666697  0.83333182  0.38859586
   0.66666743  0.33333301  0.38859557
   0.66666668  0.83333357  0.38859593
   0.00027722  0.00024176  0.61141206
   0.00020970  0.49995519  0.61135093
   0.49990619 -0.00002969  0.61133811
   0.49975875  0.49986912  0.61133498
   0.33332422  0.16666481  0.49999604
   0.33332199  0.66665928  0.49999902
   0.83334556  0.16667332  0.49999833
   0.83334293  0.66667113  0.49999512
   0.16666531  0.33333389  0.47178764
   0.16666818  0.83333273  0.47178790
   0.66666787  0.33333187  0.47178883
   0.66666552  0.83333479  0.47178934
   0.00000250  0.00000104  0.36090290
   0.00000257  0.50000187  0.36090289
   0.49999734 -0.00000144  0.36090272
   0.49999777  0.49999947  0.36090258
   0.33335682  0.16665474  0.58311020
   0.33342916  0.66676130  0.58310618
   0.83324695  0.16658912  0.58311029
   0.83330231  0.66667780  0.58311318
  -0.00000902 -0.00000755  0.52821764
  -0.00000614  0.50000087  0.52821185
   0.50000373  0.00000134  0.52822141
   0.50000775  0.50000456  0.52821984
   0.33333086  0.16666471  0.41689746
   0.33333071  0.66666667  0.41689817
   0.83333492  0.16666802  0.41689870
   0.83333645  0.66666855  0.41689809
   0.16641936  0.33422588  0.63878339
   0.16667212  0.83309146  0.63908129
   0.66666487  0.33331352  0.63914446
   0.66665118  0.83333385  0.63915033
   0.22223751  0.16682573  0.76468129
   0.22231360  0.16582140  0.72379942
Direct configuration=     4
   0.16666596  0.33333477  0.38854485
   0.16666697  0.83333161  0.38854464
   0.66666755  0.33333301  0.38854432
   0.66666661  0.83333371  0.38854478
   0.00031807  0.00027640  0.61146486
   0.00024090  0.49994954  0.61139260
   0.49989394 -0.00003434  0.61137898
   0.49972670  0.49985439  0.61137404
   0.33332218  0.16666399  0.49999505
   0.33331998  0.66665815  0.49999902
   0.83334792  0.16667426  0.49999858
   0.83334514  0.66667235  0.49999520
   0.16666549  0.33333397  0.47170585
   0.16666883  0.83333324  0.47170613
   0.66666737  0.33333138  0.47170720
   0.66666505  0.83333498  0.47170776
   0.00000289  0.00000122  0.36086021
   0.00000296  0.50000216  0.36086019
   0.49999696 -0.00000163  0.36086000
   0.49999745  0.49999939  0.36085985
   0.33335878  0.16665226  0.58307366
   0.33345140  0.66678294  0.58306723
   0.83322916  0.16657088  0.58307285
   0.83329625  0.66668254  0.58307655
  -0.00000875 -0.00000752  0.52830033
  -0.00000634  0.50000088  0.52829266
   0.50000346  0.00000207  0.52830400
   0.50000764  0.50000385  0.52830242
   0.33333055  0.16666438  0.41693530
   0.33333034  0.66666659  0.41693606
   0.83333526  0.16666823  0.41693664
   0.83333700  0.66666877  0.41693593
   0.16637271  0.33439608  0.63876550
   0.16667416  0.83304804  0.63912039
   0.66666133  0.33330823  0.63919557
   0.66664967  0.83333459  0.63920280
   0.22224088  0.16685509  0.76467039
   0.22233156  0.16565354  0.72388363
Direct configuration=     5
   0.16666542  0.33333554  0.38839761
   0.16666696  0.83333102  0.38839735
   0.66666788  0.33333303  0.38839694
   0.66666643  0.83333410  0.38839769
   0.00043552  0.00037600  0.61161668
   0.00033062  0.49993330  0.61151244
   0.49985873 -0.00004770  0.61149647
   0.49963455  0.49981203  0.61148635
   0.33331632  0.16666163  0.49999220
   0.33331419  0.66665491  0.49999901
   0.83335472  0.16667694  0.49999931
   0.83335152  0.66667585  0.49999543
   0.16666598  0.33333421  0.47147068
   0.16667068  0.83333471  0.47147098
   0.66666592  0.33332996  0.47147246
   0.66666369  0.83333553  0.47147318
   0.00000402  0.00000175  0.36073746
   0.00000408  0.50000299  0.36073741
   0.49999585 -0.00000217  0.36073716
   0.49999652  0.49999919  0.36073696
   0.33336442  0.16664513  0.58296857
   0.33351535  0.66684517  0.58295525
   0.83317802  0.16651840  0.58296519
   0.83327886  0.66669619  0.58297120
  -0.00000799 -0.00000743  0.52853810
  -0.00000691  0.50000092  0.52852503
   0.50000269  0.00000414  0.52854149
   0.50000730  0.50000182  0.52853989
   0.33332966  0.16666344  0.41704409
   0.33332927  0.66666636  0.41704500
   0.83333625  0.16666882  0.41704574
   0.83333858  0.66666943  0.41704472
   0.16623858  0.33488550  0.63871406
   0.16668005  0.83292320  0.63923283
   0.66665115  0.33329299  0.63934255
   0.66664532  0.83333672  0.63935368
   0.22225057  0.16693951  0.76463904
   0.22238322  0.16517086  0.72412577
Direct configuration=     6
   0.16666436  0.33333707  0.38810312
   0.16666695  0.83332984  0.38810278
   0.66666854  0.33333306  0.38810219
   0.66666606  0.83333489  0.38810353
   0.00067042  0.00057520  0.61192031
   0.00051005  0.49990083  0.61175212
   0.49978832 -0.00007442  0.61173147
   0.49945023  0.49972731  0.61171098
   0.33330461  0.16665692  0.49998652
   0.33330263  0.66664841  0.49999900
   0.83336831  0.16668231  0.50000077
   0.83336428  0.66668284  0.49999591
   0.16666697  0.33333467  0.47100034
   0.16667439  0.83333765  0.47100069
   0.66666303  0.33332714  0.47100299
   0.66666097  0.83333664  0.47100402
   0.00000627  0.00000279  0.36049195
   0.00000631  0.50000466  0.36049186
   0.49999364 -0.00000325  0.36049148
   0.49999467  0.49999878  0.36049119
   0.33337570  0.16663086  0.58275840
   0.33364325  0.66696962  0.58273127
   0.83307574  0.16641346  0.58274986
   0.83324406  0.66672349  0.58276049
  -0.00000647 -0.00000724  0.52901364
  -0.00000805  0.50000098  0.52898976
   0.50000116  0.00000830  0.52901647
   0.50000662  0.49999775  0.52901482
   0.33332787  0.16666156  0.41726168
   0.33332713  0.66666590  0.41726290
   0.83333823  0.16667000  0.41726394
   0.83334174  0.66667073  0.41726231
   0.16597031  0.33586434  0.63861118
   0.16669181  0.83267353  0.63945772
   0.66663080  0.33326253  0.63963650
   0.66663663  0.83334097  0.63965545
   0.22226994  0.16710837  0.76457636
   0.22248654  0.16420549  0.72461004
Direct configuration=     7
   0.16666514  0.33333595  0.38831876
   0.16666696  0.83333071  0.38831848
   0.66666805  0.33333303  0.38831802
   0.66666633  0.83333431  0.38831893
   0.00049841  0.00042933  0.61169797
   0.00037866  0.49992461  0.61157661
   0.49983988 -0.00005485  0.61155939
   0.49958520  0.49978934  0.61154649
   0.33331319  0.16666037  0.49999068
   0.33331110  0.66665317  0.49999901
   0.83335836  0.16667838  0.49999970
   0.83335494  0.66667772  0.49999556
   0.16666625  0.33333433  0.47134475
   0.16667168  0.83333550  0.47134506
   0.66666515  0.33332921  0.47134676
   0.66666296  0.83333583  0.47134756
   0.00000462  0.00000203  0.36067172
   0.00000467  0.50000344  0.36067167
   0.49999526 -0.00000246  0.36067138
   0.49999603  0.49999908  0.36067115
   0.33336744  0.16664131  0.58291230
   0.33354960  0.66687849  0.58289528
   0.83315063  0.16649030  0.58290753
   0.83326954  0.66670350  0.58291478
  -0.00000759 -0.00000738  0.52866543
  -0.00000722  0.50000093  0.52864946
   0.50000228  0.00000526  0.52866866
   0.50000712  0.50000073  0.52866705
   0.33332918  0.16666294  0.41710235
   0.33332870  0.66666624  0.41710335
   0.83333678  0.16666914  0.41710416
   0.83333943  0.66666978  0.41710298
   0.16616675  0.33514758  0.63868651
   0.16668320  0.83285635  0.63929305
   0.66664570  0.33328484  0.63942125
   0.66664300  0.83333786  0.63943448
   0.22225575  0.16698472  0.76462226
   0.22241088  0.16491238  0.72425543
Direct configuration=     8
   0.16666511  0.33333598  0.38831181
   0.16666696  0.83333068  0.38831153
   0.66666807  0.33333304  0.38831107
   0.66666632  0.83333433  0.38831199
   0.00050396  0.00043403  0.61170514
   0.00038289  0.49992384  0.61158227
   0.49983822 -0.00005548  0.61156494
   0.49958085  0.49978734  0.61155180
   0.33331291  0.16666026  0.49999055
   0.33331082  0.66665301  0.49999901
   0.83335868  0.16667851  0.49999974
   0.83335524  0.66667789  0.49999557
   0.16666627  0.33333434  0.47133365
   0.16667176  0.83333557  0.47133396
   0.66666508  0.33332914  0.47133568
   0.66666289  0.83333586  0.47133649
   0.00000467  0.00000205  0.36066593
   0.00000473  0.50000348  0.36066587
   0.49999521 -0.00000248  0.36066558
   0.49999598  0.49999907  0.36066535
   0.33336771  0.16664097  0.58290734
   0.33355262  0.66688143  0.58288999
   0.83314822  0.16648783  0.58290245
   0.83326872  0.66670415  0.58290981
  -0.00000755 -0.00000737  0.52867665
  -0.00000724  0.50000094  0.52866042
   0.50000225  0.00000536  0.52867987
   0.50000710  0.50000063  0.52867826
   0.33332914  0.16666289  0.41710748
   0.33332865  0.66666623  0.41710849
   0.83333683  0.16666916  0.41710931
   0.83333950  0.66666981  0.41710812
   0.16616042  0.33517068  0.63868409
   0.16668347  0.83285046  0.63929835
   0.66664522  0.33328412  0.63942819
   0.66664279  0.83333796  0.63944160
   0.22225621  0.16698871  0.76462078
   0.22241332  0.16488960  0.72426686
Direct configuration=     9
   0.16666512  0.33333597  0.38831443
   0.16666696  0.83333069  0.38831415
   0.66666806  0.33333303  0.38831369
   0.66666632  0.83333433  0.38831461
   0.00050187  0.00043226  0.61170244
   0.00038130  0.49992413  0.61158014
   0.49983885 -0.00005525  0.61156285
   0.49958249  0.49978810  0.61154980
   0.33331301  0.16666030  0.49999060
   0.33331093  0.66665307  0.49999901
   0.83335856  0.16667846  0.49999972
   0.83335513  0.66667782  0.49999557
   0.16666626  0.33333434  0.47133783
   0.16667173  0.83333554  0.47133815
   0.66666510  0.33332917  0.47133986
   0.66666292  0.83333585  0.47134067
   0.00000465  0.00000204  0.36066811
   0.00000471  0.50000346  0.36066806
   0.49999523 -0.00000247  0.36066777
   0.49999600  0.49999908  0.36066754
   0.33336761  0.16664110  0.58290921
   0.33355148  0.66688032  0.58289199
   0.83314913  0.16648876  0.58290437
   0.83326903  0.66670390  0.58291168
  -0.00000756 -0.00000737  0.52867242
  -0.00000723  0.50000093  0.52865629
   0.50000226  0.00000532  0.52867564
   0.50000711  0.50000067  0.52867403
   0.33332915  0.16666291  0.41710555
   0.33332866  0.66666623  0.41710655
   0.83333681  0.16666915  0.41710737
   0.83333947  0.66666980  0.41710618
   0.16616281  0.33516197  0.63868500
   0.16668337  0.83285268  0.63929635
   0.66664540  0.33328439  0.63942557
   0.66664287  0.83333792  0.63943892
   0.22225604  0.16698720  0.76462134
   0.22241240  0.16489820  0.72426255
Direct configuration=    10
   0.16666491  0.33333600  0.38831532
   0.16666684  0.83333052  0.38831509
   0.66666831  0.33333311  0.38831482
   0.66666638  0.83333443  0.38831576
   0.00047371  0.00040460  0.61170007
   0.00036030  0.49993311  0.61157781
   0.49985398 -0.00005322  0.61156536
   0.49961957  0.49981820  0.61154782
   0.33331161  0.16665845  0.49998905
   0.33331133  0.66665480  0.49999899
   0.83335811  0.16667711  0.50000103
   0.83335660  0.66667954  0.49999806
   0.16666764  0.33333396  0.47132484
   0.16667297  0.83333726  0.47132509
   0.66666303  0.33332825  0.47132678
   0.66666232  0.83333542  0.47132752
   0.00000460  0.00000207  0.36064909
   0.00000455  0.50000333  0.36064900
   0.49999533 -0.00000235  0.36064874
   0.49999603  0.49999902  0.36064853
   0.33335909  0.16663942  0.58292170
   0.33357139  0.66689968  0.58289786
   0.83313893  0.16647143  0.58291319
   0.83326681  0.66671488  0.58292160
  -0.00000177 -0.00000340  0.52868589
  -0.00000480  0.50000054  0.52866626
   0.49999925  0.00000728  0.52868611
   0.50000267  0.49999573  0.52868546
   0.33332920  0.16666303  0.41709332
   0.33332856  0.66666608  0.41709413
   0.83333688  0.16666927  0.41709486
   0.83333940  0.66666967  0.41709368
   0.16615497  0.33519512  0.63868985
   0.16668673  0.83285416  0.63931372
   0.66663289  0.33327793  0.63944529
   0.66664952  0.83334054  0.63945966
   0.22225801  0.16700101  0.76463670
   0.22241816  0.16482800  0.72427793
Direct configuration=    11
   0.16666427  0.33333611  0.38831800
   0.16666646  0.83333002  0.38831790
   0.66666905  0.33333333  0.38831819
   0.66666655  0.83333476  0.38831924
   0.00038924  0.00032163  0.61169297
   0.00029729  0.49996005  0.61157084
   0.49989938 -0.00004712  0.61157291
   0.49973081  0.49990852  0.61154189
   0.33330739  0.16665291  0.49998440
   0.33331254  0.66665998  0.49999895
   0.83335678  0.16667305  0.50000493
   0.83336102  0.66668470  0.50000553
   0.16667180  0.33333282  0.47128586
   0.16667669  0.83334244  0.47128590
   0.66665681  0.33332551  0.47128754
   0.66666051  0.83333415  0.47128809
   0.00000443  0.00000217  0.36059200
   0.00000410  0.50000295  0.36059181
   0.49999564 -0.00000198  0.36059165
   0.49999612  0.49999885  0.36059151
   0.33333351  0.16663438  0.58295915
   0.33363111  0.66695777  0.58291547
   0.83310834  0.16641942  0.58293967
   0.83326016  0.66674781  0.58295137
   0.00001560  0.00000851  0.52872632
   0.00000250  0.49999936  0.52869619
   0.49999023  0.00001316  0.52871750
   0.49998937  0.49998090  0.52871976
   0.33332935  0.16666340  0.41705665
   0.33332826  0.66666562  0.41705688
   0.83333708  0.16666962  0.41705732
   0.83333918  0.66666929  0.41705618
   0.16613146  0.33529459  0.63870440
   0.16669681  0.83285859  0.63936584
   0.66659534  0.33325854  0.63950445
   0.66666946  0.83334841  0.63952187
   0.22226392  0.16704242  0.76468279
   0.22243544  0.16461739  0.72432408
Direct configuration=    12
   0.16666299  0.33333631  0.38832335
   0.16666571  0.83332901  0.38832352
   0.66667052  0.33333377  0.38832494
   0.66666689  0.83333541  0.38832618
   0.00022031  0.00015569  0.61167878
   0.00017128  0.50001392  0.61155689
   0.49999019 -0.00003493  0.61158802
   0.49995328  0.50008915  0.61153003
   0.33329896  0.16664184  0.49997511
   0.33331497  0.66667033  0.49999886
   0.83335412  0.16666493  0.50001274
   0.83336987  0.66669501  0.50002047
   0.16668011  0.33333053  0.47120790
   0.16668413  0.83335278  0.47120752
   0.66664438  0.33332002  0.47120906
   0.66665689  0.83333161  0.47120923
   0.00000409  0.00000237  0.36047783
   0.00000318  0.50000217  0.36047745
   0.49999625 -0.00000125  0.36047747
   0.49999630  0.49999852  0.36047746
   0.33328237  0.16662431  0.58303406
   0.33375056  0.66707395  0.58295069
   0.83304716  0.16631541  0.58299261
   0.83324685  0.66681367  0.58301089
   0.00005034  0.00003234  0.52880718
   0.00001709  0.49999699  0.52875604
   0.49997218  0.00002493  0.52878028
   0.49996276  0.49995124  0.52878835
   0.33332964  0.16666413  0.41698331
   0.33332766  0.66666469  0.41698238
   0.83333748  0.16667032  0.41698223
   0.83333873  0.66666852  0.41698117
   0.16608443  0.33549351  0.63873350
   0.16671698  0.83286745  0.63947007
   0.66652024  0.33321976  0.63962277
   0.66670935  0.83336415  0.63964631
   0.22227575  0.16712525  0.76477497
   0.22247000  0.16419619  0.72441638
Direct configuration=    13
   0.16666042  0.33333671  0.38833405
   0.16666421  0.83332700  0.38833477
   0.66667347  0.33333465  0.38833843
   0.66666757  0.83333670  0.38834007
  -0.00011757 -0.00017619  0.61165039
  -0.00008075  0.50012166  0.61152900
   0.50017181 -0.00001055  0.61161822
   0.50039823  0.50045042  0.61150631
   0.33328209  0.16661968  0.49995652
   0.33331982  0.66669104  0.49999868
   0.83334879  0.16664870  0.50002836
   0.83338756  0.66671564  0.50005037
   0.16669672  0.33332597  0.47105198
   0.16669901  0.83337347  0.47105077
   0.66661952  0.33330904  0.47105209
   0.66664967  0.83332652  0.47105151
   0.00000342  0.00000276  0.36024948
   0.00000135  0.50000061  0.36024872
   0.49999748  0.00000021  0.36024912
   0.49999665  0.49999785  0.36024937
   0.33318009  0.16660416  0.58318388
   0.33398947  0.66730631  0.58302113
   0.83292478  0.16610738  0.58309849
   0.83322024  0.66694538  0.58312993
   0.00011983  0.00008000  0.52896889
   0.00004628  0.49999225  0.52887574
   0.49993609  0.00004847  0.52890584
   0.49990955  0.49989193  0.52892553
   0.33333022  0.16666560  0.41683662
   0.33332646  0.66666284  0.41683339
   0.83333828  0.16667172  0.41683207
   0.83333784  0.66666699  0.41683116
   0.16599039  0.33589136  0.63879170
   0.16675731  0.83288516  0.63967852
   0.66637003  0.33314221  0.63985941
   0.66678914  0.83339563  0.63989518
   0.22229940  0.16729090  0.76495933
   0.22253912  0.16335379  0.72460099
Direct configuration=    14
   0.16665772  0.33333723  0.38827608
   0.16665994  0.83332285  0.38827624
   0.66667847  0.33333824  0.38828174
   0.66666981  0.83333653  0.38828302
  -0.00012655 -0.00016898  0.61169385
  -0.00008509  0.50014908  0.61157630
   0.50017056  0.00000049  0.61167462
   0.50040923  0.50048753  0.61155069
   0.33328856  0.16661545  0.49995456
   0.33333836  0.66671228  0.49999290
   0.83332934  0.16663303  0.50002137
   0.83338281  0.66671842  0.50003309
   0.16669542  0.33331821  0.47105110
   0.16668751  0.83337467  0.47105039
   0.66662155  0.33331771  0.47105266
   0.66666090  0.83332470  0.47105343
   0.00000419  0.00000310  0.36017657
   0.00000142  0.50000047  0.36017544
   0.49999695  0.00000036  0.36017640
   0.49999605  0.49999688  0.36017666
   0.33315470  0.16659813  0.58324048
   0.33410832  0.66743599  0.58304314
   0.83284347  0.16601620  0.58313507
   0.83320233  0.66699070  0.58317122
   0.00012551  0.00007246  0.52897403
   0.00003352  0.49999336  0.52887065
   0.49993356  0.00007595  0.52889732
   0.49992298  0.49988193  0.52892246
   0.33332941  0.16666443  0.41678704
   0.33332565  0.66666308  0.41678350
   0.83333855  0.16667167  0.41678374
   0.83333905  0.66666758  0.41678493
   0.16595594  0.33601663  0.63881164
   0.16674336  0.83287893  0.63974332
   0.66633608  0.33314167  0.63993252
   0.66683773  0.83340311  0.63998010
   0.22231046  0.16736561  0.76505018
   0.22256625  0.16297833  0.72467756
Direct configuration=    15
   0.16664962  0.33333880  0.38810217
   0.16664711  0.83331039  0.38810067
   0.66669347  0.33334901  0.38811168
   0.66667654  0.83333601  0.38811187
  -0.00015349 -0.00014734  0.61182424
  -0.00009812  0.50023136  0.61171821
   0.50016683  0.00003361  0.61184380
   0.50044221  0.50059887  0.61168385
   0.33330796  0.16660276  0.49994868
   0.33339397  0.66677599  0.49997557
   0.83327097  0.16658602  0.50000043
   0.83336853  0.66672676  0.49998125
   0.16669150  0.33329491  0.47104844
   0.16665298  0.83337827  0.47104923
   0.66662764  0.33334370  0.47105436
   0.66669458  0.83331924  0.47105917
   0.00000651  0.00000412  0.35995784
   0.00000163  0.50000004  0.35995562
   0.49999539  0.00000081  0.35995826
   0.49999423  0.49999398  0.35995853
   0.33307855  0.16658002  0.58341029
   0.33446489  0.66782500  0.58310917
   0.83259954  0.16574265  0.58324479
   0.83314861  0.66712664  0.58329509
   0.00014256  0.00004984  0.52898946
  -0.00000475  0.49999669  0.52885536
   0.49992595  0.00015840  0.52887175
   0.49996327  0.49985190  0.52891322
   0.33332700  0.16666092  0.41663832
   0.33332320  0.66666378  0.41663383
   0.83333937  0.16667151  0.41663876
   0.83334267  0.66666934  0.41664624
   0.16585259  0.33639245  0.63887148
   0.16670148  0.83286024  0.63993772
   0.66623422  0.33314004  0.64015187
   0.66698352  0.83342554  0.64023486
   0.22234365  0.16758975  0.76532271
   0.22264767  0.16185195  0.72490726
Direct configuration=    16
   0.16663341  0.33334193  0.38775435
   0.16662145  0.83328547  0.38774953
   0.66672346  0.33337056  0.38777154
   0.66668999  0.83333498  0.38776957
  -0.00020738 -0.00010405  0.61208502
  -0.00012419  0.50039591  0.61200202
   0.50015936  0.00009987  0.61218218
   0.50050816  0.50082155  0.61195016
   0.33334677  0.16657737  0.49993691
   0.33350519  0.66690341  0.49994090
   0.83315425  0.16649200  0.49995854
   0.83333998  0.66674343  0.49987757
   0.16668367  0.33324832  0.47104312
   0.16658394  0.83338548  0.47104691
   0.66663982  0.33339567  0.47105777
   0.66676196  0.83330832  0.47107065
   0.00001114  0.00000616  0.35952036
   0.00000204  0.49999918  0.35951596
   0.49999225  0.00000171  0.35952196
   0.49999058  0.49998817  0.35952228
   0.33292623  0.16654381  0.58374989
   0.33517802  0.66860304  0.58324122
   0.83211167  0.16519556  0.58346424
   0.83304116  0.66739852  0.58354283
   0.00017664  0.00000460  0.52902032
  -0.00008129  0.50000335  0.52882477
   0.49991073  0.00032330  0.52882062
   0.50004385  0.49979186  0.52889474
   0.33332217  0.16665391  0.41634089
   0.33331830  0.66666519  0.41633449
   0.83334100  0.16667119  0.41634879
   0.83334992  0.66667288  0.41636886
   0.16564590  0.33714408  0.63899115
   0.16661773  0.83282286  0.64032651
   0.66603050  0.33313678  0.64059056
   0.66727508  0.83347041  0.64074438
   0.22241002  0.16803803  0.76586777
   0.22281050  0.15959918  0.72536666
Direct configuration=    17
   0.16660098  0.33334818  0.38705872
   0.16657012  0.83323564  0.38704724
   0.66678344  0.33341364  0.38709127
   0.66671690  0.83333291  0.38708498
  -0.00031516 -0.00001748  0.61260657
  -0.00017632  0.50072501  0.61256964
   0.50014442  0.00023238  0.61285892
   0.50064007  0.50126690  0.61248278
   0.33342439  0.16652661  0.49991338
   0.33372762  0.66715826  0.49987158
   0.83292081  0.16630397  0.49987475
   0.83328288  0.66677677  0.49967021
   0.16666802  0.33315515  0.47103249
   0.16644585  0.83339989  0.47104227
   0.66666417  0.33349963  0.47106458
   0.66689671  0.83328649  0.47109361
   0.00002040  0.00001024  0.35864542
   0.00000288  0.49999745  0.35863665
   0.49998598  0.00000350  0.35864938
   0.49998330  0.49997654  0.35864978
   0.33262161  0.16647140  0.58442911
   0.33660428  0.67015911  0.58350533
   0.83113594  0.16410137  0.58390314
   0.83282627  0.66794229  0.58403831
   0.00024482 -0.00008589  0.52908205
  -0.00023437  0.50001668  0.52876360
   0.49988030  0.00065310  0.52871836
   0.50020501  0.49967178  0.52885779
   0.33331252  0.16663988  0.41574601
   0.33330849  0.66666800  0.41573582
   0.83334426  0.16667056  0.41576886
   0.83336442  0.66667994  0.41581409
   0.16523252  0.33864735  0.63923050
   0.16645024  0.83274811  0.64110409
   0.66562307  0.33313026  0.64146794
   0.66785822  0.83356015  0.64176342
   0.22254277  0.16893458  0.76695789
   0.22313616  0.15509365  0.72628546
Direct configuration=    18
   0.16662119  0.33334428  0.38749225
   0.16660211  0.83326669  0.38748492
   0.66674606  0.33338679  0.38751522
   0.66670013  0.83333420  0.38751163
  -0.00024799 -0.00007143  0.61228153
  -0.00014383  0.50051991  0.61221589
   0.50015373  0.00014980  0.61243716
   0.50055786  0.50098935  0.61215084
   0.33337602  0.16655825  0.49992804
   0.33358900  0.66699944  0.49991478
   0.83306629  0.16642116  0.49992697
   0.83331846  0.66675599  0.49979944
   0.16667778  0.33321322  0.47103912
   0.16653191  0.83339091  0.47104516
   0.66664899  0.33343484  0.47106033
   0.66681273  0.83330009  0.47107930
   0.00001463  0.00000770  0.35919069
   0.00000236  0.49999853  0.35918465
   0.49998989  0.00000238  0.35919318
   0.49998784  0.49998379  0.35919353
   0.33281146  0.16651653  0.58400582
   0.33571542  0.66918935  0.58334073
   0.83174403  0.16478328  0.58362961
   0.83296020  0.66760341  0.58372952
   0.00020233 -0.00002950  0.52904358
  -0.00013897  0.50000837  0.52880172
   0.49989927  0.00044756  0.52878209
   0.50010457  0.49974662  0.52888082
   0.33331854  0.16664862  0.41611674
   0.33331460  0.66666625  0.41610892
   0.83334223  0.16667095  0.41613028
   0.83335538  0.66667554  0.41615983
   0.16549015  0.33771050  0.63908133
   0.16655462  0.83279470  0.64061949
   0.66587699  0.33313432  0.64092114
   0.66749480  0.83350422  0.64112834
   0.22246004  0.16837584  0.76627851
   0.22293321  0.15790156  0.72571285
Direct configuration=    19
   0.16662132  0.33334374  0.38745429
   0.16660315  0.83326761  0.38744593
   0.66674529  0.33338560  0.38747726
   0.66669992  0.83333465  0.38747278
  -0.00025160 -0.00006209  0.61231126
  -0.00014383  0.50053933  0.61224574
   0.50014997  0.00015926  0.61247401
   0.50055951  0.50101147  0.61218050
   0.33337798  0.16655717  0.49992886
   0.33359682  0.66700967  0.49991230
   0.83305821  0.16641569  0.49992431
   0.83331739  0.66675660  0.49979072
   0.16667636  0.33320852  0.47103837
   0.16652461  0.83339115  0.47104408
   0.66665120  0.33344047  0.47105953
   0.66681976  0.83329961  0.47107980
   0.00001369  0.00000650  0.35914386
   0.00000174  0.49999862  0.35913758
   0.49999023  0.00000216  0.35914654
   0.49998896  0.49998443  0.35914692
   0.33279983  0.16651521  0.58404095
   0.33578828  0.66927290  0.58335528
   0.83169013  0.16473166  0.58365271
   0.83294830  0.66762658  0.58375509
   0.00020582 -0.00003378  0.52904379
  -0.00014741  0.50000874  0.52879881
   0.49989732  0.00046981  0.52877430
   0.50011329  0.49973937  0.52887720
   0.33331871  0.16664744  0.41608459
   0.33331537  0.66666770  0.41607663
   0.83334098  0.16666972  0.41609888
   0.83335570  0.66667603  0.41612916
   0.16546987  0.33778882  0.63909761
   0.16654163  0.83278289  0.64066046
   0.66586362  0.33314103  0.64096663
   0.66752343  0.83350710  0.64118307
   0.22246841  0.16841628  0.76629771
   0.22295002  0.15765635  0.72580850
Direct configuration=    20
   0.16662170  0.33334210  0.38734040
   0.16660628  0.83327036  0.38732895
   0.66674296  0.33338203  0.38736336
   0.66669928  0.83333602  0.38735625
  -0.00026241 -0.00003407  0.61240044
  -0.00014381  0.50059760  0.61233529
   0.50013868  0.00018763  0.61258456
   0.50056446  0.50107783  0.61226947
   0.33338388  0.16655394  0.49993132
   0.33362029  0.66704036  0.49990486
   0.83303396  0.16639928  0.49991634
   0.83331417  0.66675843  0.49976457
   0.16667213  0.33319444  0.47103612
   0.16650274  0.83339188  0.47104084
   0.66665782  0.33345737  0.47105710
   0.66684083  0.83329814  0.47108130
   0.00001090  0.00000291  0.35900335
  -0.00000013  0.49999892  0.35899637
   0.49999127  0.00000147  0.35900660
   0.49999232  0.49998634  0.35900710
   0.33276496  0.16651127  0.58414634
   0.33600685  0.66952357  0.58339893
   0.83152843  0.16457679  0.58372202
   0.83291261  0.66769608  0.58383178
   0.00021629 -0.00004660  0.52904442
  -0.00017276  0.50000985  0.52879005
   0.49989147  0.00053653  0.52875091
   0.50013946  0.49971763  0.52886635
   0.33331924  0.16664390  0.41598812
   0.33331765  0.66667204  0.41597976
   0.83333724  0.16666601  0.41600466
   0.83335666  0.66667750  0.41603714
   0.16540905  0.33802379  0.63914645
   0.16650267  0.83274747  0.64078336
   0.66582351  0.33316114  0.64110310
   0.66760933  0.83351573  0.64134727
   0.22249355  0.16853759  0.76635528
   0.22300045  0.15692074  0.72609545
Direct configuration=    21
   0.16662174  0.33334194  0.38732922
   0.16660659  0.83327063  0.38731746
   0.66674273  0.33338168  0.38735218
   0.66669922  0.83333615  0.38734481
  -0.00026347 -0.00003132  0.61240920
  -0.00014381  0.50060332  0.61234408
   0.50013757  0.00019042  0.61259541
   0.50056494  0.50108434  0.61227821