CeO2                                    
           1
     7.707464    0.000000    0.000000
    -3.853732    6.674860    0.000000
     0.000000    0.000000   28.319031
   Ce   O    C    O 
  12  24   1   1
Direct configuration=     1
   0.16666700  0.33333300  0.38888900
   0.16666700  0.83333300  0.38888900
   0.66666700  0.33333300  0.38888900
   0.66666700  0.83333300  0.38888900
   0.00000000  0.00000000  0.61111100
   0.00000000  0.50000000  0.61111100
   0.50000000  0.00000000  0.61111100
   0.50000000  0.50000000  0.61111100
   0.33333300  0.16666700  0.50000000
   0.33333300  0.66666700  0.50000000
   0.83333300  0.16666700  0.50000000
   0.83333300  0.66666700  0.50000000
   0.16666700  0.33333300  0.47222200
   0.16666700  0.83333300  0.47222200
   0.66666700  0.33333300  0.47222200
   0.66666700  0.83333300  0.47222200
   0.00000000  0.00000000  0.36111100
   0.00000000  0.50000000  0.36111100
   0.50000000  0.00000000  0.36111100
   0.50000000  0.50000000  0.36111100
   0.33333300  0.16666700  0.58333300
   0.33333300  0.66666700  0.58333300
   0.83333300  0.16666700  0.58333300
   0.83333300  0.66666700  0.58333300
   0.00000000  0.00000000  0.52777800
   0.00000000  0.50000000  0.52777800
   0.50000000  0.00000000  0.52777800
   0.50000000  0.50000000  0.52777800
   0.33333300  0.16666700  0.41666700
   0.33333300  0.66666700  0.41666700
   0.83333300  0.16666700  0.41666700
   0.83333300  0.66666700  0.41666700
   0.16666700  0.33333300  0.63888900
   0.16666700  0.83333300  0.63888900
   0.66666700  0.33333300  0.63888900
   0.66666700  0.83333300  0.63888900
   0.44444400  0.16666700  0.72389500
   0.59261300  0.16666700  0.72389500
Direct configuration=     2
   0.16666486  0.33333503  0.38861332
   0.16666756  0.83333074  0.38861297
   0.66666880  0.33333233  0.38861260
   0.66666415  0.83333369  0.38861349
   0.00001612  0.00020908  0.61146234
   0.00002959  0.49987189  0.61134574
   0.50017876 -0.00038979  0.61117215
   0.49986870  0.50017537  0.61129699
   0.33333078  0.16667097  0.50000096
   0.33333119  0.66666179  0.50000811
   0.83333859  0.16667101  0.50000587
   0.83333238  0.66666637  0.50000636
   0.16666464  0.33333475  0.47179315
   0.16667214  0.83333334  0.47179334
   0.66666620  0.33332699  0.47179250
   0.66666289  0.83333664  0.47179375
   0.00000089  0.00000241  0.36090677
   0.00000105  0.49999888  0.36090687
   0.49999891 -0.00000073  0.36090680
   0.49999701  0.49999880  0.36090667
   0.33334829  0.16661404  0.58312172
   0.33334236  0.66673481  0.58311132
   0.83327582  0.16664009  0.58311680
   0.83340125  0.66675154  0.58311891
   0.00000093  0.00000560  0.52819659
   0.00001064  0.50000050  0.52820027
   0.49999597 -0.00001408  0.52821090
   0.49999120  0.50000210  0.52820098
   0.33333169  0.16666689  0.41688371
   0.33333140  0.66666534  0.41688420
   0.83333470  0.16666818  0.41688449
   0.83333353  0.66666656  0.41688308
   0.16664986  0.33348368  0.63901222
   0.16678993  0.83328017  0.63909910
   0.66742923  0.33498079  0.63837469
   0.66659665  0.83323689  0.63906478
   0.44278435  0.16692377  0.72417690
   0.59335398  0.16482762  0.72469859
Direct configuration=     3
   0.16666549  0.33333443  0.38869482
   0.16666739  0.83333141  0.38869457
   0.66666827  0.33333253  0.38869431
   0.66666499  0.83333349  0.38869494
   0.00001136  0.00014727  0.61135847
   0.00002084  0.49990976  0.61127634
   0.50012591 -0.00027456  0.61115407
   0.49990751  0.50012353  0.61124201
   0.33333144  0.16666980  0.50000068
   0.33333173  0.66666333  0.50000572
   0.83333693  0.16666983  0.50000413
   0.83333256  0.66666656  0.50000448
   0.16666534  0.33333423  0.47191994
   0.16667062  0.83333324  0.47192007
   0.66666644  0.33332877  0.47191948
   0.66666410  0.83333557  0.47192036
   0.00000063  0.00000170  0.36096715
   0.00000074  0.49999921  0.36096722
   0.49999924 -0.00000052  0.36096717
   0.49999790  0.49999915  0.36096708
   0.33334377  0.16662969  0.58318418
   0.33333959  0.66671476  0.58317685
   0.83329273  0.16664804  0.58318072
   0.83338107  0.66672655  0.58318220
   0.00000066  0.00000394  0.52807284
   0.00000750  0.50000035  0.52807543
   0.49999716 -0.00000992  0.52808292
   0.49999380  0.50000148  0.52807593
   0.33333207  0.16666692  0.41681965
   0.33333187  0.66666583  0.41681999
   0.83333420  0.16666783  0.41682019
   0.83333337  0.66666669  0.41681920
   0.16665493  0.33343913  0.63897579
   0.16675359  0.83329579  0.63903699
   0.66720389  0.33449364  0.63852674
   0.66661745  0.83326530  0.63901281
   0.44327501  0.16684786  0.72409356
   0.59313492  0.16537141  0.72446102
Direct configuration=     4
   0.16666508  0.33333471  0.38864105
   0.16666728  0.83333101  0.38864078
   0.66666864  0.33333261  0.38864047
   0.66666464  0.83333357  0.38864122
   0.00001698  0.00018462  0.61142684
   0.00002487  0.49989084  0.61132140
   0.50015951 -0.00035064  0.61116486
   0.49988684  0.50016000  0.61127664
   0.33332855  0.16667055  0.50000119
   0.33332968  0.66666018  0.50000622
   0.83334094  0.16667136  0.50000484
   0.83333379  0.66666798  0.50000658
   0.16666513  0.33333488  0.47183368
   0.16667244  0.83333356  0.47183387
   0.66666586  0.33332698  0.47183317
   0.66666268  0.83333640  0.47183426
   0.00000077  0.00000213  0.36092328
   0.00000091  0.49999902  0.36092336
   0.49999907 -0.00000062  0.36092331
   0.49999739  0.49999897  0.36092319
   0.33334238  0.16661516  0.58314478
   0.33334317  0.66673065  0.58313479
   0.83328164  0.16663811  0.58314044
   0.83340011  0.66675453  0.58314129
   0.00000104  0.00000643  0.52815729
   0.00001038  0.49999986  0.52816012
   0.49999672 -0.00001369  0.52816971
   0.49999102  0.50000219  0.52816065
   0.33333185  0.16666691  0.41685955
   0.33333162  0.66666557  0.41686000
   0.83333448  0.16666802  0.41686022
   0.83333345  0.66666661  0.41685892
   0.16664978  0.33346799  0.63900311
   0.16678153  0.83328789  0.63908194
   0.66735616  0.33482564  0.63842445
   0.66660379  0.83324826  0.63905044
   0.44341413  0.16689847  0.72415333
   0.59280271  0.16498729  0.72462875
Direct configuration=     5
   0.16666386  0.33333556  0.38847972
   0.16666694  0.83332979  0.38847938
   0.66666975  0.33333286  0.38847894
   0.66666360  0.83333381  0.38848006
   0.00003383  0.00029667  0.61163196
   0.00003695  0.49983409  0.61145656
   0.50026029 -0.00057891  0.61119725
   0.49982483  0.50026944  0.61138053
   0.33331987  0.16667282  0.50000271
   0.33332356  0.66665072  0.50000774
   0.83335296  0.16667597  0.50000697
   0.83333746  0.66667227  0.50001289
   0.16666450  0.33333682  0.47157493
   0.16667788  0.83333451  0.47157530
   0.66666413  0.33332163  0.47157425
   0.66665843  0.83333892  0.47157597
   0.00000119  0.00000344  0.36079167
   0.00000143  0.49999845  0.36079178
   0.49999856 -0.00000093  0.36079171
   0.49999585  0.49999841  0.36079153
   0.33333821  0.16657154  0.58302656
   0.33335392  0.66677833  0.58300860
   0.83324839  0.16660830  0.58301959
   0.83345721  0.66683849  0.58301856
   0.00000218  0.00001387  0.52841066
   0.00001905  0.49999839  0.52841420
   0.49999538 -0.00002500  0.52843009
   0.49998266  0.50000434  0.52841480
   0.33333119  0.16666688  0.41697925
   0.33333086  0.66666479  0.41698005
   0.83333533  0.16666859  0.41698032
   0.83333367  0.66666638  0.41697808
   0.16663434  0.33355456  0.63908506
   0.16686537  0.83326421  0.63921679
   0.66781299  0.33582163  0.63811760
   0.66656280  0.83319715  0.63916334
   0.44383150  0.16705029  0.72433266
   0.59180609  0.16383493  0.72513196
Direct configuration=     6
   0.16666142  0.33333725  0.38815707
   0.16666627  0.83332737  0.38815659
   0.66667197  0.33333335  0.38815589
   0.66666152  0.83333431  0.38815774
   0.00006755  0.00052078  0.61204218
   0.00006111  0.49972057  0.61172690
   0.50046186 -0.00103544  0.61126201
   0.49970081  0.50048831  0.61158831
   0.33330251  0.16667735  0.50000575
   0.33331130  0.66663180  0.50001079
   0.83337699  0.16668519  0.50001123
   0.83334481  0.66668083  0.50002552
   0.16666324  0.33334070  0.47105742
   0.16668877  0.83333642  0.47105814
   0.66666067  0.33331092  0.47105642
   0.66664991  0.83334394  0.47105939
   0.00000202  0.00000605  0.36052846
   0.00000246  0.49999731  0.36052861
   0.49999756 -0.00000154  0.36052852
   0.49999278  0.49999729  0.36052820
   0.33332987  0.16648431  0.58279012
   0.33337540  0.66687368  0.58275621
   0.83318188  0.16654869  0.58277789
   0.83357142  0.66700640  0.58277309
   0.00000448  0.00002876  0.52891739
   0.00003638  0.49999545  0.52892236
   0.49999271 -0.00004763  0.52895085
   0.49996594  0.50000862  0.52892312
   0.33332986  0.16666683  0.41721865
   0.33332933  0.66666322  0.41722016
   0.83333702  0.16666973  0.41722051
   0.83333412  0.66666591  0.41721639
   0.16660347  0.33372770  0.63924896
   0.16703305  0.83321685  0.63948649
   0.66872664  0.33781361  0.63750389
   0.66648081  0.83309492  0.63938912
   0.44466625  0.16735395  0.72469130
   0.58981284  0.16153021  0.72613837
Direct configuration=     7
   0.16666191  0.33333691  0.38822194
   0.16666641  0.83332786  0.38822150
   0.66667153  0.33333326  0.38822085
   0.66666194  0.83333421  0.38822254
   0.00006077  0.00047572  0.61195970
   0.00005626  0.49974340  0.61167254
   0.50042133 -0.00094365  0.61124899
   0.49972575  0.50044430  0.61154653
   0.33330600  0.16667644  0.50000514
   0.33331377  0.66663561  0.50001017
   0.83337216  0.16668334  0.50001037
   0.83334334  0.66667911  0.50002298
   0.16666349  0.33333992  0.47116147
   0.16668658  0.83333603  0.47116213
   0.66666136  0.33331308  0.47116054
   0.66665162  0.83334293  0.47116326
   0.00000185  0.00000552  0.36058138
   0.00000225  0.49999754  0.36058152
   0.49999776 -0.00000141  0.36058144
   0.49999340  0.49999752  0.36058114
   0.33333154  0.16650185  0.58283766
   0.33337108  0.66685451  0.58280696
   0.83319525  0.16656068  0.58282649
   0.83354846  0.66697264  0.58282244
   0.00000402  0.00002576  0.52881550
   0.00003290  0.49999604  0.52882019
   0.49999325 -0.00004308  0.52884614
   0.49996930  0.50000776  0.52882091
   0.33333013  0.16666684  0.41717051
   0.33332964  0.66666354  0.41717188
   0.83333668  0.16666950  0.41717222
   0.83333403  0.66666601  0.41716847
   0.16660968  0.33369289  0.63921600
   0.16699933  0.83322637  0.63943227
   0.66854293  0.33741310  0.63762728
   0.66649730  0.83311548  0.63934372
   0.44449841  0.16729289  0.72461919
   0.59021361  0.16199360  0.72593602
Direct configuration=     8
   0.16666194  0.33333625  0.38822706
   0.16666487  0.83332781  0.38822701
   0.66667181  0.33333463  0.38822644
   0.66666320  0.83333368  0.38822793
   0.00009196  0.00044748  0.61195219
   0.00005446  0.49980589  0.61166026
   0.50039266 -0.00094123  0.61123340
   0.49975915  0.50045256  0.61153015
   0.33328540  0.16667514  0.50000734
   0.33330027  0.66661885  0.50000083
   0.83339560  0.16668850  0.50000626
   0.83335502  0.66669310  0.50002941
   0.16666500  0.33334311  0.47114898
   0.16669394  0.83333744  0.47114999
   0.66665843  0.33330717  0.47114886
   0.66664593  0.83334444  0.47115135
   0.00000172  0.00000545  0.36055297
   0.00000237  0.49999758  0.36055304
   0.49999787 -0.00000155  0.36055303
   0.49999350  0.49999777  0.36055273
   0.33329609  0.16646745  0.58285718
   0.33338755  0.66687765  0.58282133
   0.83319468  0.16652045  0.58284713
   0.83359643  0.66707184  0.58283342
   0.00000546  0.00003870  0.52882790
   0.00004045  0.49999058  0.52882880
   0.49999661 -0.00005248  0.52885412
   0.49995974  0.50001115  0.52882839
   0.33332990  0.16666703  0.41714552
   0.33332963  0.66666325  0.41714722
   0.83333701  0.16666948  0.41714730
   0.83333395  0.66666616  0.41714309
   0.16659179  0.33368926  0.63924001
   0.16702880  0.83323882  0.63946010
   0.66856648  0.33746080  0.63762214
   0.66649610  0.83313481  0.63937055
   0.44453886  0.16733350  0.72465137
   0.59007236  0.16178148  0.72602518
Direct configuration=     9
   0.16666203  0.33333425  0.38824244
   0.16666024  0.83332767  0.38824355
   0.66667265  0.33333875  0.38824322
   0.66666699  0.83333211  0.38824408
   0.00018551  0.00036275  0.61192966
   0.00004907  0.49999335  0.61162342
   0.50030666 -0.00093398  0.61118664
   0.49985938  0.50047735  0.61148099
   0.33322360  0.16667123  0.50001393
   0.33325979  0.66656859  0.49997280
   0.83346592  0.16670400  0.49999392
   0.83339005  0.66673508  0.50004872
   0.16666953  0.33335269  0.47111152
   0.16671602  0.83334165  0.47111359
   0.66664962  0.33328945  0.47111381
   0.66662886  0.83334897  0.47111561
   0.00000133  0.00000522  0.36046771
   0.00000270  0.49999768  0.36046760
   0.49999819 -0.00000197  0.36046779
   0.49999381  0.49999854  0.36046751
   0.33318973  0.16636425  0.58291576
   0.33343696  0.66694708  0.58286446
   0.83319296  0.16639975  0.58290907
   0.83374036  0.66736943  0.58286635
   0.00000980  0.00007750  0.52886510
   0.00006311  0.49997420  0.52885466
   0.50000668 -0.00008068  0.52887805
   0.49993107  0.50002133  0.52885080
   0.33332924  0.16666760  0.41707056
   0.33332960  0.66666241  0.41707325
   0.83333799  0.16666941  0.41707256
   0.83333373  0.66666660  0.41706693
   0.16653814  0.33367835  0.63931204
   0.16711721  0.83327619  0.63954358
   0.66863713  0.33760392  0.63760670
   0.66649253  0.83319283  0.63945105
   0.44466020  0.16745533  0.72474791
   0.58964860  0.16114512  0.72629266
Direct configuration=    10
   0.16666221  0.33333026  0.38827318
   0.16665099  0.83332738  0.38827664
   0.66667433  0.33334698  0.38827678
   0.66667457  0.83332896  0.38827638
   0.00037261  0.00019330  0.61188459
   0.00003829  0.50036829  0.61154974
   0.50013467 -0.00091948  0.61109312
   0.50005982  0.50052691  0.61138268
   0.33309999  0.16666341  0.50002712
   0.33317882  0.66646808  0.49991673
   0.83360656  0.16673501  0.49996925
   0.83346013  0.66681904  0.50008733
   0.16667859  0.33337186  0.47103658
   0.16676018  0.83335007  0.47104078
   0.66663202  0.33325401  0.47104372
   0.66659472  0.83335802  0.47104413
   0.00000055  0.00000476  0.36029721
   0.00000338  0.49999789  0.36029671
   0.49999884 -0.00000281  0.36029731
   0.49999443  0.50000008  0.36029706
   0.33297701  0.16615786  0.58303291
   0.33353577  0.66708595  0.58295071
   0.83318953  0.16615836  0.58303294
   0.83402822  0.66796463  0.58293222
   0.00001849  0.00015511  0.52893950
   0.00010843  0.49994144  0.52890637
   0.50002684 -0.00013707  0.52892592
   0.49987373  0.50004168  0.52889562
   0.33332792  0.16666873  0.41692062
   0.33332955  0.66666073  0.41692530
   0.83333995  0.16666926  0.41692309
   0.83333329  0.66666750  0.41691461
   0.16643084  0.33365654  0.63945609
   0.16729402  0.83335091  0.63971056
   0.66877842  0.33789016  0.63757583
   0.66648537  0.83330885  0.63961204
   0.44490287  0.16769898  0.72494099
   0.58880108  0.15987239  0.72682763
Direct configuration=    11
   0.16666258  0.33332227  0.38833468
   0.16663248  0.83332680  0.38834281
   0.66667770  0.33336346  0.38834390
   0.66668973  0.83332266  0.38834099
   0.00074681 -0.00014561  0.61179446
   0.00001673  0.50111815  0.61140238
   0.49979067 -0.00089049  0.61090607
   0.50046071  0.50062605  0.61118605
   0.33285278  0.16664778  0.50005350
   0.33301688  0.66626704  0.49980460
   0.83388784  0.16679701  0.49991990
   0.83360029  0.66698695  0.50016454
   0.16669670  0.33341019  0.47088671
   0.16684849  0.83336691  0.47089517
   0.66659680  0.33318312  0.47090353
   0.66652643  0.83337613  0.47090117
  -0.00000102  0.00000385  0.35995621
   0.00000473  0.49999831  0.35995494
   0.50000013 -0.00000449  0.35995636
   0.49999567  0.50000316  0.35995617
   0.33255156  0.16574508  0.58326721
   0.33373340  0.66736368  0.58312321
   0.83318267  0.16567558  0.58328069
   0.83460394  0.66915501  0.58306394
   0.00003585  0.00031032  0.52908829
   0.00019906  0.49987592  0.52900980
   0.50006714 -0.00024986  0.52902165
   0.49975904  0.50008239  0.52898527
   0.33332527  0.16667100  0.41662075
   0.33332945  0.66665736  0.41662941
   0.83334388  0.16666896  0.41662413
   0.83333240  0.66666928  0.41660997
   0.16621623  0.33361292  0.63974419
   0.16764764  0.83350036  0.64004452
   0.66906100  0.33846263  0.63751409
   0.66647107  0.83354089  0.63993402
   0.44538823  0.16818628  0.72532716
   0.58710603  0.15732694  0.72789756
Direct configuration=    12
   0.16666243  0.33332544  0.38831027
   0.16663983  0.83332703  0.38831654
   0.66667636  0.33335692  0.38831726
   0.66668371  0.83332516  0.38831534
   0.00059827 -0.00001108  0.61183024
   0.00002528  0.50082048  0.61146088
   0.49992722 -0.00090200  0.61098032
   0.50030157  0.50058669  0.61126410
   0.33295092  0.16665399  0.50004303
   0.33308117  0.66634685  0.49984911
   0.83377618  0.16677240  0.49993949
   0.83354465  0.66692030  0.50013389
   0.16668951  0.33339497  0.47094620
   0.16681343  0.83336022  0.47095297
   0.66661078  0.33321126  0.47095918
   0.66655354  0.83336894  0.47095792
  -0.00000040  0.00000421  0.36009158
   0.00000420  0.49999814  0.36009061
   0.49999962 -0.00000382  0.36009171
   0.49999518  0.50000194  0.36009149
   0.33272045  0.16590894  0.58317420
   0.33365495  0.66725343  0.58305473
   0.83318540  0.16586723  0.58318234
   0.83437540  0.66868247  0.58301165
   0.00002895  0.00024870  0.52902923
   0.00016308  0.49990193  0.52896874
   0.50005114 -0.00020508  0.52898365
   0.49980457  0.50006623  0.52894969
   0.33332632  0.16667010  0.41673979
   0.33332949  0.66665870  0.41674687
   0.83334232  0.16666908  0.41674281
   0.83333275  0.66666857  0.41673090
   0.16630142  0.33363024  0.63962982
   0.16750726  0.83344103  0.63991195
   0.66894882  0.33823538  0.63753860
   0.66647675  0.83344878  0.63980620
   0.44519556  0.16799284  0.72517386
   0.58777891  0.15833740  0.72747283
Direct configuration=    13
   0.16666287  0.33332098  0.38828932
   0.16663500  0.83332943  0.38829825
   0.66667558  0.33336063  0.38830154
   0.66668931  0.83332409  0.38829749
   0.00063296 -0.00000751  0.61184548
   0.00005512  0.50089172  0.61146244
   0.49991311 -0.00090232  0.61097942
   0.50032259  0.50061947  0.61126570
   0.33293184  0.16664423  0.50004188
   0.33307303  0.66634122  0.49983314
   0.83379070  0.16676921  0.49993645
   0.83356134  0.66694425  0.50013389
   0.16669328  0.33339774  0.47094411
   0.16681917  0.83336289  0.47095345
   0.66660648  0.33320744  0.47096105
   0.66654962  0.83336850  0.47095740
  -0.00000010  0.00000542  0.36004760
   0.00000634  0.49999822  0.36004672
   0.49999935 -0.00000530  0.36004805
   0.49999351  0.50000257  0.36004763
   0.33266278  0.16585188  0.58319892
   0.33367772  0.66729157  0.58307061
   0.83318728  0.16580735  0.58320866
   0.83446723  0.66885920  0.58302163
   0.00004312  0.00027409  0.52902483
   0.00017028  0.49989897  0.52896328
   0.50005066 -0.00021556  0.52897322
   0.49979427  0.50006590  0.52894196
   0.33332189  0.16667046  0.41670357
   0.33332719  0.66665512  0.41670934
   0.83334755  0.16667008  0.41670539
   0.83333463  0.66667126  0.41669469
   0.16628391  0.33363822  0.63966244
   0.16755426  0.83345435  0.63995525
   0.66897559  0.33829856  0.63753884
   0.66646694  0.83346655  0.63984569
   0.44502315  0.16809450  0.72523216
   0.58775744  0.15790861  0.72764852
Direct configuration=    14
   0.16666337  0.33331596  0.38826577
   0.16662958  0.83333213  0.38827770
   0.66667469  0.33336480  0.38828387
   0.66669562  0.83332288  0.38827741
   0.00067196 -0.00000350  0.61186261
   0.00008866  0.50097179  0.61146420
   0.49989724 -0.00090268  0.61097841
   0.50034622  0.50065632  0.61126749
   0.33291039  0.16663327  0.50004060
   0.33306388  0.66633490  0.49981518
   0.83380701  0.16676563  0.49993303
   0.83358009  0.66697118  0.50013388
   0.16669752  0.33340086  0.47094176
   0.16682562  0.83336589  0.47095399
   0.66660166  0.33320313  0.47096314
   0.66654522  0.83336800  0.47095681
   0.00000025  0.00000678  0.35999817
   0.00000875  0.49999830  0.35999739
   0.49999905 -0.00000696  0.35999897
   0.49999164  0.50000327  0.35999833
   0.33259797  0.16578774  0.58322671
   0.33370331  0.66733444  0.58308845
   0.83318941  0.16574003  0.58323824
   0.83457044  0.66905786  0.58303285
   0.00005905  0.00030263  0.52901988
   0.00017838  0.49989564  0.52895715
   0.50005011 -0.00022733  0.52896150
   0.49978269  0.50006552  0.52893328
   0.33331692  0.16667087  0.41666286
   0.33332460  0.66665110  0.41666715
   0.83335342  0.16667121  0.41666334
   0.83333674  0.66667429  0.41665398
   0.16626423  0.33364721  0.63969911
   0.16760710  0.83346933  0.64000393
   0.66900567  0.33836958  0.63753912
   0.66645592  0.83348653  0.63989006
   0.44482936  0.16820878  0.72529768
   0.58773330  0.15742663  0.72784601
Direct configuration=    15
   0.16666437  0.33330593  0.38821867
   0.16661873  0.83333752  0.38823660
   0.66667292  0.33337314  0.38824854
   0.66670822  0.83332047  0.38823727
   0.00074995  0.00000451  0.61189686
   0.00015573  0.50113194  0.61146771
   0.49986550 -0.00090341  0.61097638
   0.50039347  0.50073000  0.61127107
   0.33286749  0.16661134  0.50003802
   0.33304559  0.66632225  0.49977927
   0.83383964  0.16675847  0.49992620
   0.83361760  0.66702503  0.50013386
   0.16670599  0.33340709  0.47093705
   0.16683851  0.83337189  0.47095506
   0.66659200  0.33319453  0.47096734
   0.66653642  0.83336701  0.47095564
   0.00000093  0.00000949  0.35989931
   0.00001357  0.49999847  0.35989873
   0.49999845 -0.00001028  0.35990083
   0.49998789  0.50000469  0.35989972
   0.33246833  0.16565946  0.58328229
   0.33375449  0.66742017  0.58312413
   0.83319365  0.16560541  0.58329740
   0.83477688  0.66945517  0.58305528
   0.00009090  0.00035971  0.52900999
   0.00019457  0.49988899  0.52894487
   0.50004902 -0.00025088  0.52893807
   0.49975953  0.50006478  0.52891592
   0.33330696  0.16667170  0.41658143
   0.33331941  0.66664307  0.41658278
   0.83336518  0.16667347  0.41657922
   0.83334095  0.66668034  0.41657258
   0.16622487  0.33366517  0.63977244
   0.16771276  0.83349927  0.64010127
   0.66906584  0.33851161  0.63753966
   0.66643387  0.83352649  0.63997882
   0.44444178  0.16843733  0.72542872
   0.58768502  0.15646267  0.72824099
Direct configuration=    16
   0.16666372  0.33331245  0.38824926
   0.16662577  0.83333402  0.38826329
   0.66667407  0.33336773  0.38827149
   0.66670003  0.83332204  0.38826334
   0.00069930 -0.00000069  0.61187462
   0.00011217  0.50102793  0.61146543
   0.49988611 -0.00090294  0.61097770
   0.50036278  0.50068215  0.61126874
   0.33289535  0.16662558  0.50003969
   0.33305747  0.66633047  0.49980259
   0.83381845  0.16676312  0.49993064
   0.83359324  0.66699005  0.50013387
   0.16670049  0.33340304  0.47094011
   0.16683014  0.83336799  0.47095436
   0.66659827  0.33320012  0.47096461
   0.66654214  0.83336765  0.47095640
   0.00000048  0.00000773  0.35996351
   0.00001044  0.49999836  0.35996281
   0.49999884 -0.00000812  0.35996457
   0.49999033  0.50000377  0.35996376
   0.33255252  0.16574277  0.58324619
   0.33372125  0.66736449  0.58310095
   0.83319090  0.16569284  0.58325898
   0.83464281  0.66919714  0.58304071
   0.00007021  0.00032264  0.52901642
   0.00018406  0.49989331  0.52895284
   0.50004973 -0.00023559  0.52895329
   0.49977457  0.50006526  0.52892720
   0.33331343  0.16667116  0.41663431
   0.33332278  0.66664829  0.41663758
   0.83335754  0.16667200  0.41663385
   0.83333821  0.66667641  0.41662545
   0.16625044  0.33365350  0.63972482
   0.16764414  0.83347982  0.64003805
   0.66902677  0.33841937  0.63753931
   0.66644819  0.83350054  0.63992118
   0.44469349  0.16828890  0.72534362
   0.58771637  0.15708870  0.72798447
Direct configuration=    17
   0.16666394  0.33330526  0.38820351
   0.16661978  0.83333847  0.38822164
   0.66667208  0.33337158  0.38823458
   0.66670792  0.83332142  0.38822266
   0.00071781  0.00004660  0.61191299
   0.00016686  0.50106871  0.61148540
   0.49990332 -0.00090546  0.61099821
   0.50035567  0.50073086  0.61129387
   0.33288963  0.16661135  0.50003449
   0.33306165  0.66634218  0.49978627
   0.83381289  0.16675063  0.49993066
   0.83360629  0.66701386  0.50012503
   0.16670496  0.33340387  0.47095117
   0.16683005  0.83337045  0.47096936
   0.66659484  0.33320145  0.47098174
   0.66654284  0.83336473  0.47096947
   0.00000102  0.00000951  0.35992218
   0.00001379  0.49999864  0.35992182
   0.49999793 -0.00001062  0.35992399
   0.49998744  0.50000454  0.35992270
   0.33249866  0.16568919  0.58326406
   0.33373930  0.66740044  0.58310971
   0.83319528  0.16564177  0.58327804
   0.83474105  0.66937716  0.58304394
   0.00009392  0.00035231  0.52899316
   0.00018589  0.49989452  0.52893346
   0.50004511 -0.00024071  0.52892563
   0.49976932  0.50005977  0.52890555
   0.33330568  0.16667112  0.41660345
   0.33331869  0.66664263  0.41660397
   0.83336599  0.16667350  0.41660091
   0.83334170  0.66668113  0.41659515
   0.16624485  0.33367562  0.63975118
   0.16768917  0.83348630  0.64007916
   0.66904325  0.33847198  0.63754635
   0.66643050  0.83350422  0.63995628
   0.44476892  0.16838419  0.72541349
   0.58742897  0.15663085  0.72817479
Direct configuration=    18
   0.16666457  0.33328371  0.38806627
   0.16660182  0.83335184  0.38809666
   0.66666613  0.33338316  0.38812388
   0.66673160  0.83331956  0.38810061
   0.00077335  0.00018847  0.61202812
   0.00033094  0.50119104  0.61154533
   0.49995493 -0.00091305  0.61105974
   0.50033432  0.50087698  0.61136926
   0.33287248  0.16656866  0.50001889
   0.33307421  0.66637733  0.49973729
   0.83379620  0.16671318  0.49993072
   0.83364544  0.66708527  0.50009850
   0.16671837  0.33340635  0.47098434
   0.16682977  0.83337782  0.47101435
   0.66658454  0.33320546  0.47103310
   0.66654495  0.83335595  0.47100868
   0.00000265  0.00001483  0.35979817
   0.00002383  0.49999950  0.35979885
   0.49999522 -0.00001809  0.35980225
   0.49997879  0.50000684  0.35979951
   0.33233707  0.16552845  0.58331766
   0.33379344  0.66750830  0.58313597
   0.83320844  0.16548856  0.58333521
   0.83503577  0.66991720  0.58305363
   0.00016506  0.00044132  0.52892338
   0.00019140  0.49989816  0.52887532
   0.50003126 -0.00025608  0.52884267
   0.49975358  0.50004328  0.52884060
   0.33328246  0.16667100  0.41651087
   0.33330643  0.66662566  0.41650316
   0.83339133  0.16667797  0.41650207
   0.83335216  0.66669531  0.41650426
   0.16622808  0.33374196  0.63983029
   0.16782428  0.83350571  0.64020249
   0.66909272  0.33862980  0.63756749
   0.66637745  0.83351525  0.64006158
   0.44499520  0.16867007  0.72562310
   0.58656675  0.15525728  0.72874572
Direct configuration=    19
   0.16666585  0.33324061  0.38779178
   0.16656589  0.83337858  0.38784672
   0.66665422  0.33340631  0.38790247
   0.66677894  0.83331586  0.38785650
   0.00088443  0.00047221  0.61225838
   0.00065909  0.50143569  0.61166517
   0.50005817 -0.00092821  0.61118280
   0.50029163  0.50116923  0.61152004
   0.33283818  0.16648329  0.49998768
   0.33309932  0.66644762  0.49963934
   0.83376283  0.16663826  0.49993085
   0.83372374  0.66722810  0.50004544
   0.16674519  0.33341131  0.47105069
   0.16682921  0.83339256  0.47110432
   0.66656395  0.33321347  0.47113584
   0.66654917  0.83333838  0.47108709
   0.00000589  0.00002549  0.35955015
   0.00004391  0.50000120  0.35955291
   0.49998978 -0.00003305  0.35955877
   0.49996147  0.50001143  0.35955313
   0.33201390  0.16520697  0.58342487
   0.33390172  0.66772400  0.58318850
   0.83323475  0.16518213  0.58344956
   0.83562522  0.67099730  0.58307302
   0.00030733  0.00061934  0.52878384
   0.00020243  0.49990543  0.52875903
   0.50000357 -0.00028683  0.52867674
   0.49972210  0.50001031  0.52871070
   0.33323602  0.16667075  0.41632572
   0.33328192  0.66659172  0.41630154
   0.83344202  0.16668692  0.41630441
   0.83337308  0.66672366  0.41632248
   0.16619456  0.33387465  0.63998850
   0.16809448  0.83354453  0.64044914
   0.66919166  0.33894546  0.63760977
   0.66627134  0.83353731  0.64027218
   0.44544775  0.16924183  0.72604232
   0.58484230  0.15251016  0.72988760
Direct configuration=    20
   0.16666841  0.33315441  0.38724282
   0.16649403  0.83343206  0.38734683
   0.66663039  0.33345262  0.38745964
   0.66687363  0.83330844  0.38736828
   0.00110659  0.00103970  0.61271890
   0.00131540  0.50192501  0.61190487
   0.50026464 -0.00095853  0.61142893
   0.50020624  0.50175372  0.61182161
   0.33276958  0.16631253  0.49992527
   0.33314954  0.66658821  0.49944344
   0.83369610  0.16648843  0.49993110
   0.83388033  0.66751376  0.49993933
   0.16679883  0.33342122  0.47118339
   0.16682810  0.83342205  0.47128427
   0.66652276  0.33322950  0.47134131
   0.66655760  0.83330326  0.47124391
   0.00001237  0.00004681  0.35905413
   0.00008408  0.50000461  0.35906104
   0.49997892 -0.00006297  0.35907180
   0.49992685  0.50002063  0.35906037
   0.33136755  0.16456401  0.58363928
   0.33411828  0.66815541  0.58329355
   0.83328737  0.16456928  0.58367826
   0.83680411  0.67315749  0.58311179
   0.00059186  0.00097537  0.52850474
   0.00022447  0.49991998  0.52852645
   0.49994818 -0.00034833  0.52834487
   0.49965914  0.49994437  0.52845090
   0.33314313  0.16667026  0.41595542
   0.33323288  0.66652383  0.41589830
   0.83354338  0.16670483  0.41590908
   0.83341493  0.66678036  0.41595893
   0.16612750  0.33414002  0.64030491
   0.16863490  0.83362219  0.64094245
   0.66938953  0.33957677  0.63769432
   0.66605912  0.83358142  0.64069339
   0.44635286  0.17038534  0.72688078
   0.58139342  0.14701590  0.73217135
Direct configuration=    21
   0.16664106  0.33316013  0.38719857
   0.16653962  0.83343681  0.38728940
   0.66663471  0.33340170  0.38742383
   0.66685310  0.83335314  0.38731521
   0.00108413  0.00115041  0.61274298
   0.00135326  0.50191755  0.61191211
   0.50033495 -0.00088750  0.61146878
   0.50022435  0.50181650  0.61183619