CeO2                                    
           1
     7.707464    0.000000    0.000000
    -3.853732    6.674860    0.000000
     0.000000    0.000000   28.319031
   Ce   O    C    O 
  12  24   1   1
Direct configuration=     1
   0.16666700  0.33333300  0.38888900
   0.16666700  0.83333300  0.38888900
   0.66666700  0.33333300  0.38888900
   0.66666700  0.83333300  0.38888900
   0.00000000  0.00000000  0.61111100
   0.00000000  0.50000000  0.61111100
   0.50000000  0.00000000  0.61111100
   0.50000000  0.50000000  0.61111100
   0.33333300  0.16666700  0.50000000
   0.33333300  0.66666700  0.50000000
   0.83333300  0.16666700  0.50000000
   0.83333300  0.66666700  0.50000000
   0.16666700  0.33333300  0.47222200
   0.16666700  0.83333300  0.47222200
   0.66666700  0.33333300  0.47222200
   0.66666700  0.83333300  0.47222200
   0.00000000  0.00000000  0.36111100
   0.00000000  0.50000000  0.36111100
   0.50000000  0.00000000  0.36111100
   0.50000000  0.50000000  0.36111100
   0.33333300  0.16666700  0.58333300
   0.33333300  0.66666700  0.58333300
   0.83333300  0.16666700  0.58333300
   0.83333300  0.66666700  0.58333300
   0.00000000  0.00000000  0.52777800
   0.00000000  0.50000000  0.52777800
   0.50000000  0.00000000  0.52777800
   0.50000000  0.50000000  0.52777800
   0.33333300  0.16666700  0.41666700
   0.33333300  0.66666700  0.41666700
   0.83333300  0.16666700  0.41666700
   0.83333300  0.66666700  0.41666700
   0.16666700  0.33333300  0.63888900
   0.16666700  0.83333300  0.63888900
   0.66666700  0.33333300  0.63888900
   0.66666700  0.83333300  0.63888900
   0.38888900  0.11111100  0.72389500
   0.38888900  0.11111100  0.76422100
Direct configuration=     2
   0.16666465  0.33333535  0.38861480
   0.16666833  0.83333071  0.38861412
   0.66666929  0.33333167  0.38861412
   0.66666496  0.83333504  0.38861445
   0.00017971 -0.00003225  0.61132232
  -0.00012879  0.50012879  0.61133731
   0.49961269  0.00038731  0.61158707
   0.50003225  0.49982029  0.61132232
   0.33333886  0.16666114  0.50000650
   0.33332672  0.66667604  0.50000626
   0.83332396  0.16667328  0.50000626
   0.83334026  0.66665974  0.50000638
   0.16666498  0.33333502  0.47179552
   0.16666383  0.83332942  0.47179508
   0.66667058  0.33333617  0.47179508
   0.66666819  0.83333181  0.47179411
  -0.00000811 -0.00000122  0.36090490
   0.00000181  0.49999819  0.36090425
   0.50000525 -0.00000525  0.36090472
   0.50000122  0.50000811  0.36090490
   0.33331520  0.16668480  0.58309835
   0.33339520  0.66664527  0.58311538
   0.83335473  0.16660480  0.58311538
   0.83327026  0.66672974  0.58310987
  -0.00000895  0.00000155  0.52820577
   0.00000478  0.49999522  0.52819243
   0.50001002 -0.00001002  0.52818810
   0.49999845  0.50000895  0.52820577
   0.33333155  0.16666845  0.41688521
   0.33333935  0.66666680  0.41688559
   0.83333320  0.16666065  0.41688559
   0.83332942  0.66667058  0.41688521
   0.16667885  0.33332115  0.63916319
   0.16559098  0.83211736  0.63892347
   0.66788264  0.33440902  0.63892347
   0.66669615  0.83330385  0.63915317
   0.38910946  0.11089054  0.72365061
   0.38878605  0.11121395  0.76467897
Direct configuration=     3
   0.16666514  0.33333486  0.38867181
   0.16666805  0.83333118  0.38867127
   0.66666882  0.33333195  0.38867127
   0.66666538  0.83333462  0.38867153
   0.00014234 -0.00002555  0.61127838
  -0.00010202  0.50010202  0.61129025
   0.49969322  0.00030678  0.61148809
   0.50002555  0.49985766  0.61127838
   0.33333764  0.16666236  0.50000515
   0.33332802  0.66667416  0.50000496
   0.83332584  0.16667198  0.50000496
   0.83333875  0.66666125  0.50000506
   0.16666540  0.33333460  0.47188419
   0.16666449  0.83333016  0.47188384
   0.66666984  0.33333551  0.47188384
   0.66666794  0.83333206  0.47188308
  -0.00000643 -0.00000097  0.36094775
   0.00000144  0.49999856  0.36094724
   0.50000416 -0.00000416  0.36094761
   0.50000097  0.50000643  0.36094775
   0.33331890  0.16668110  0.58314713
   0.33338227  0.66664978  0.58316062
   0.83335022  0.16661773  0.58316062
   0.83328331  0.66671669  0.58315626
  -0.00000709  0.00000123  0.52811683
   0.00000379  0.49999621  0.52810626
   0.50000793 -0.00000793  0.52810283
   0.49999877  0.50000709  0.52811683
   0.33333185  0.16666815  0.41683984
   0.33333803  0.66666684  0.41684014
   0.83333316  0.16666197  0.41684014
   0.83333016  0.66666984  0.41683984
   0.16667639  0.33332361  0.63910618
   0.16581470  0.83237011  0.63891630
   0.66762989  0.33418530  0.63891630
   0.66669009  0.83330991  0.63909824
   0.38906362  0.11093638  0.72370142
   0.38880745  0.11119255  0.76458375
Direct configuration=     4
   0.16666474  0.33333526  0.38861686
   0.16666825  0.83333074  0.38861613
   0.66666926  0.33333175  0.38861613
   0.66666507  0.83333493  0.38861650
   0.00016553 -0.00003160  0.61132024
  -0.00012340  0.50012340  0.61133419
   0.49962109  0.00037891  0.61158313
   0.50003160  0.49983447  0.61132024
   0.33334019  0.16665981  0.50000483
   0.33332838  0.66667883  0.50000662
   0.83332117  0.16667162  0.50000662
   0.83334012  0.66665988  0.50000569
   0.16666558  0.33333442  0.47179616
   0.16666353  0.83333010  0.47179566
   0.66666990  0.33333647  0.47179566
   0.66666866  0.83333134  0.47179476
  -0.00000767 -0.00000119  0.36090213
   0.00000174  0.49999826  0.36090151
   0.50000501 -0.00000501  0.36090194
   0.50000119  0.50000767  0.36090213
   0.33331792  0.16668208  0.58310478
   0.33340003  0.66665058  0.58312047
   0.83334942  0.16659997  0.58312047
   0.83326744  0.66673256  0.58311309
  -0.00000676  0.00000177  0.52820536
   0.00000406  0.49999594  0.52819160
   0.50000840 -0.00000840  0.52818931
   0.49999823  0.50000676  0.52820536
   0.33333168  0.16666832  0.41688059
   0.33333891  0.66666673  0.41688085
   0.83333327  0.16666109  0.41688085
   0.83332972  0.66667028  0.41688055
   0.16668219  0.33331781  0.63916585
   0.16559311  0.83212090  0.63892629
   0.66787910  0.33440689  0.63892629
   0.66669388  0.83330612  0.63915582
   0.38911218  0.11088782  0.72376789
   0.38878526  0.11121474  0.76456348
Direct configuration=     5
   0.16666356  0.33333644  0.38845200
   0.16666883  0.83332942  0.38845072
   0.66667058  0.33333117  0.38845072
   0.66666412  0.83333588  0.38845141
   0.00023511 -0.00004975  0.61144581
  -0.00018754  0.50018754  0.61146601
   0.49940471  0.00059529  0.61186824
   0.50004975  0.49976489  0.61144581
   0.33334783  0.16665217  0.50000385
   0.33332945  0.66669286  0.50001158
   0.83330714  0.16667055  0.50001158
   0.83334422  0.66665578  0.50000758
   0.16666612  0.33333388  0.47153206
   0.16666067  0.83332990  0.47153109
   0.66667010  0.33333933  0.47153109
   0.66667081  0.83332919  0.47152981
  -0.00001139 -0.00000185  0.36076525
   0.00000265  0.49999735  0.36076431
   0.50000755 -0.00000755  0.36076494
   0.50000185  0.50001139  0.36076525
   0.33331496  0.16668504  0.58297772
   0.33345331  0.66665295  0.58300000
   0.83334705  0.16654669  0.58300000
   0.83321983  0.66678017  0.58298356
  -0.00000574  0.00000339  0.52847094
   0.00000489  0.49999511  0.52844762
   0.50000980 -0.00000980  0.52844876
   0.49999661  0.50000574  0.52847094
   0.33333115  0.16666885  0.41700283
   0.33334156  0.66666638  0.41700297
   0.83333362  0.16665844  0.41700297
   0.83332841  0.66667159  0.41700268
   0.16669960  0.33330040  0.63934486
   0.16492833  0.83137328  0.63895626
   0.66862672  0.33507167  0.63895626
   0.66670524  0.83329476  0.63932855
   0.38925787  0.11074213  0.72396728
   0.38871869  0.11128131  0.76450267
Direct configuration=     6
   0.16666119  0.33333881  0.38812229
   0.16667001  0.83332677  0.38811988
   0.66667323  0.33332999  0.38811988
   0.66666222  0.83333778  0.38812124
   0.00037426 -0.00008604  0.61169696
  -0.00031584  0.50031584  0.61172964
   0.49897196  0.00102804  0.61243847
   0.50008604  0.49962574  0.61169696
   0.33336310  0.16663690  0.50000189
   0.33333159  0.66672093  0.50002151
   0.83327907  0.16666841  0.50002151
   0.83335241  0.66664759  0.50001138
   0.16666721  0.33333279  0.47100386
   0.16665493  0.83332950  0.47100196
   0.66667050  0.33334507  0.47100196
   0.66667511  0.83332489  0.47099992
  -0.00001883 -0.00000318  0.36049149
   0.00000446  0.49999554  0.36048993
   0.50001264 -0.00001264  0.36049093
   0.50000318  0.50001883  0.36049149
   0.33330906  0.16669094  0.58272360
   0.33355987  0.66665771  0.58275907
   0.83334229  0.16644013  0.58275907
   0.83312462  0.66687538  0.58272450
  -0.00000372  0.00000664  0.52900209
   0.00000654  0.49999346  0.52895965
   0.50001260 -0.00001260  0.52896764
   0.49999336  0.50000372  0.52900209
   0.33333010  0.16666990  0.41724730
   0.33334685  0.66666568  0.41724721
   0.83333432  0.16665315  0.41724721
   0.83332577  0.66667423  0.41724693
   0.16673443  0.33326557  0.63970289
   0.16359877  0.82987803  0.63901621
   0.67012197  0.33640123  0.63901621
   0.66672796  0.83327204  0.63967401
   0.38954924  0.11045076  0.72436608
   0.38858554  0.11141446  0.76438105
Direct configuration=     7
   0.16666286  0.33333714  0.38835514
   0.16666918  0.83332864  0.38835352
   0.66667136  0.33333082  0.38835352
   0.66666356  0.83333644  0.38835441
   0.00027599 -0.00006041  0.61151960
  -0.00022524  0.50022524  0.61154346
   0.49927757  0.00072243  0.61203577
   0.50006041  0.49972401  0.61151960
   0.33335231  0.16664769  0.50000327
   0.33333008  0.66670111  0.50001450
   0.83329889  0.16666992  0.50001450
   0.83334662  0.66665338  0.50000870
   0.16666644  0.33333356  0.47137688
   0.16665898  0.83332978  0.47137564
   0.66667022  0.33334102  0.47137564
   0.66667207  0.83332793  0.47137413
  -0.00001357 -0.00000224  0.36068482
   0.00000318  0.49999682  0.36068370
   0.50000905 -0.00000905  0.36068443
   0.50000224  0.50001357  0.36068482
   0.33331323  0.16668677  0.58290306
   0.33348461  0.66665435  0.58292922
   0.83334565  0.16651539  0.58292922
   0.83319186  0.66680814  0.58290745
  -0.00000515  0.00000435  0.52862699
   0.00000538  0.49999462  0.52859805
   0.50001062 -0.00001062  0.52860120
   0.49999565  0.50000515  0.52862699
   0.33333084  0.16666916  0.41707465
   0.33334311  0.66666618  0.41707473
   0.83333382  0.16665689  0.41707473
   0.83332763  0.66667237  0.41707444
   0.16670983  0.33329017  0.63945005
   0.16453771  0.83093398  0.63897388
   0.66906602  0.33546229  0.63897388
   0.66671191  0.83328809  0.63943004
   0.38934347  0.11065653  0.72408445
   0.38867957  0.11132043  0.76446694
Direct configuration=     8
   0.16666282  0.33333718  0.38834929
   0.16666920  0.83332859  0.38834765
   0.66667141  0.33333080  0.38834765
   0.66666353  0.83333647  0.38834855
   0.00027846 -0.00006105  0.61152406
  -0.00022751  0.50022751  0.61154814
   0.49926989  0.00073011  0.61204589
   0.50006105  0.49972154  0.61152406
   0.33335259  0.16664741  0.50000324
   0.33333012  0.66670161  0.50001467
   0.83329839  0.16666988  0.50001467
   0.83334677  0.66665323  0.50000877
   0.16666646  0.33333354  0.47136750
   0.16665888  0.83332978  0.47136625
   0.66667022  0.33334112  0.47136625
   0.66667215  0.83332785  0.47136473
  -0.00001371 -0.00000227  0.36067996
   0.00000321  0.49999679  0.36067883
   0.50000914 -0.00000914  0.36067957
   0.50000227  0.50001371  0.36067996
   0.33331312  0.16668688  0.58289855
   0.33348651  0.66665443  0.58292494
   0.83334557  0.16651349  0.58292494
   0.83319017  0.66680983  0.58290285
  -0.00000512  0.00000440  0.52863641
   0.00000541  0.49999459  0.52860714
   0.50001067 -0.00001067  0.52861041
   0.49999560  0.50000512  0.52863641
   0.33333082  0.16666918  0.41707899
   0.33334320  0.66666616  0.41707906
   0.83333384  0.16665680  0.41707906
   0.83332759  0.66667241  0.41707877
   0.16671045  0.33328955  0.63945640
   0.16451412  0.83090745  0.63897494
   0.66909255  0.33548588  0.63897494
   0.66671232  0.83328768  0.63943617
   0.38934864  0.11065136  0.72409152
   0.38867720  0.11132280  0.76446478
Direct configuration=     9
   0.16666284  0.33333716  0.38835258
   0.16666919  0.83332862  0.38835095
   0.66667138  0.33333081  0.38835095
   0.66666355  0.83333645  0.38835185
   0.00027707 -0.00006069  0.61152155
  -0.00022623  0.50022623  0.61154551
   0.49927421  0.00072579  0.61204020
   0.50006069  0.49972293  0.61152155
   0.33335243  0.16664757  0.50000326
   0.33333010  0.66670133  0.50001458
   0.83329867  0.16666990  0.50001458
   0.83334669  0.66665331  0.50000873
   0.16666645  0.33333355  0.47137278
   0.16665894  0.83332978  0.47137153
   0.66667022  0.33334106  0.47137153
   0.66667211  0.83332789  0.47137002
  -0.00001363 -0.00000225  0.36068269
   0.00000319  0.49999681  0.36068157
   0.50000909 -0.00000909  0.36068231
   0.50000225  0.50001363  0.36068269
   0.33331318  0.16668682  0.58290109
   0.33348544  0.66665439  0.58292735
   0.83334561  0.16651456  0.58292735
   0.83319112  0.66680888  0.58290544
  -0.00000514  0.00000437  0.52863111
   0.00000539  0.49999461  0.52860202
   0.50001064 -0.00001064  0.52860523
   0.49999563  0.50000514  0.52863111
   0.33333084  0.16666916  0.41707655
   0.33334315  0.66666617  0.41707662
   0.83333383  0.16665685  0.41707662
   0.83332761  0.66667239  0.41707633
   0.16671010  0.33328990  0.63945283
   0.16452739  0.83092238  0.63897434
   0.66907762  0.33547261  0.63897434
   0.66671209  0.83328791  0.63943272
   0.38934573  0.11065427  0.72408754
   0.38867853  0.11132147  0.76446599
Direct configuration=    10
   0.16666274  0.33333726  0.38835283
   0.16666901  0.83332831  0.38835090
   0.66667169  0.33333099  0.38835090
   0.66666361  0.83333639  0.38835209
   0.00022285 -0.00006020  0.61151917
  -0.00020815  0.50020815  0.61153878
   0.49929507  0.00070493  0.61203929
   0.50006020  0.49977715  0.61151917
   0.33335831  0.16664169  0.49999704
   0.33333606  0.66671315  0.50001689
   0.83328685  0.16666394  0.50001689
   0.83334659  0.66665341  0.50000656
   0.16666858  0.33333142  0.47135844
   0.16665785  0.83333235  0.47135683
   0.66666765  0.33334215  0.47135683
   0.66667375  0.83332625  0.47135533
  -0.00001271 -0.00000220  0.36066086
   0.00000301  0.49999699  0.36065975
   0.50000860 -0.00000860  0.36066047
   0.50000220  0.50001271  0.36066086
   0.33332434  0.16667566  0.58292086
   0.33350980  0.66667685  0.58294134
   0.83332315  0.16649020  0.58294134
   0.83317496  0.66682504  0.58291064
   0.00000475  0.00000691  0.52864544
   0.00000293  0.49999707  0.52861393
   0.50000376 -0.00000376  0.52862614
   0.49999309  0.49999525  0.52864544
   0.33333123  0.16666877  0.41706367
   0.33334222  0.66666623  0.41706337
   0.83333377  0.16665778  0.41706337
   0.83332836  0.66667164  0.41706325
   0.16672441  0.33327559  0.63947805
   0.16448863  0.83088325  0.63898872
   0.66911675  0.33551137  0.63898872
   0.66670242  0.83329758  0.63945870
   0.38937420  0.11062580  0.72409960
   0.38866549  0.11133451  0.76447354
Direct configuration=    11
   0.16666243  0.33333757  0.38835358
   0.16666849  0.83332740  0.38835076
   0.66667260  0.33333151  0.38835076
   0.66666378  0.83333622  0.38835283
   0.00006020 -0.00005873  0.61151205
  -0.00015391  0.50015391  0.61151857
   0.49935763  0.00064237  0.61203656
   0.50005873  0.49993980  0.61151205
   0.33337594  0.16662406  0.49997838
   0.33335394  0.66674864  0.50002385
   0.83325136  0.16664606  0.50002385
   0.83334630  0.66665370  0.50000005
   0.16667498  0.33332502  0.47131542
   0.16665457  0.83334007  0.47131271
   0.66665993  0.33334543  0.47131271
   0.66667866  0.83332134  0.47131127
  -0.00000995 -0.00000204  0.36059536
   0.00000248  0.49999752  0.36059428
   0.50000712 -0.00000712  0.36059494
   0.50000204  0.50000995  0.36059536
   0.33335782  0.16664218  0.58298015
   0.33358288  0.66674423  0.58298333
   0.83325577  0.16641712  0.58298333
   0.83312646  0.66687354  0.58292626
   0.00003441  0.00001452  0.52868842
  -0.00000446  0.50000446  0.52864967
   0.49998309  0.00001691  0.52868890
   0.49998548  0.49996559  0.52868842
   0.33333243  0.16666757  0.41702503
   0.33333943  0.66666642  0.41702359
   0.83333358  0.16666057  0.41702359
   0.83333059  0.66666941  0.41702399
   0.16676731  0.33323269  0.63955371
   0.16437234  0.83076587  0.63903185
   0.66923413  0.33562766  0.63903185
   0.66667342  0.83332658  0.63953665
   0.38945961  0.11054039  0.72413577
   0.38862638  0.11137362  0.76449618
Direct configuration=    12
   0.16666181  0.33333819  0.38835509
   0.16666743  0.83332556  0.38835047
   0.66667444  0.33333257  0.38835047
   0.66666414  0.83333586  0.38835429
  -0.00026510 -0.00005579  0.61149779
  -0.00004544  0.50004544  0.61147817
   0.49948275  0.00051725  0.61203110
   0.50005579  0.50026510  0.61149779
   0.33341119  0.16658881  0.49994106
   0.33338971  0.66681960  0.50003775
   0.83318040  0.16661029  0.50003775
   0.83334571  0.66665429  0.49998704
   0.16668776  0.33331224  0.47122937
   0.16664803  0.83335550  0.47122449
   0.66664450  0.33335197  0.47122449
   0.66668850  0.83331150  0.47122314
  -0.00000443 -0.00000171  0.36046435
   0.00000142  0.49999858  0.36046334
   0.50000417 -0.00000417  0.36046390
   0.50000171  0.50000443  0.36046435
   0.33342477  0.16657523  0.58309875
   0.33372904  0.66687901  0.58306729
   0.83312099  0.16627096  0.58306729
   0.83302947  0.66697053  0.58295750
   0.00009373  0.00002973  0.52877437
  -0.00001922  0.50001922  0.52872114
   0.49994176  0.00005824  0.52881440
   0.49997027  0.49990627  0.52877437
   0.33333481  0.16666519  0.41694774
   0.33333386  0.66666680  0.41694404
   0.83333320  0.16666614  0.41694404
   0.83333506  0.66666494  0.41694546
   0.16685312  0.33314688  0.63970502
   0.16413977  0.83053111  0.63911813
   0.66946889  0.33586023  0.63911813
   0.66661542  0.83338458  0.63969253
   0.38963043  0.11036957  0.72420810
   0.38854814  0.11145186  0.76454146
Direct configuration=    13
   0.16666058  0.33333942  0.38835811
   0.16666532  0.83332189  0.38834990
   0.66667811  0.33333468  0.38834990
   0.66666486  0.83333514  0.38835723
  -0.00091570 -0.00004990  0.61146928
   0.00017151  0.49982849  0.61139736
   0.49973298  0.00026702  0.61202019
   0.50004990  0.50091570  0.61146928
   0.33348171  0.16651829  0.49986643
   0.33346125  0.66696153  0.50006557
   0.83303847  0.16653875  0.50006557
   0.83334454  0.66665546  0.49996101
   0.16671333  0.33328667  0.47105728
   0.16663494  0.83338637  0.47104805
   0.66661363  0.33336506  0.47104805
   0.66670817  0.83329183  0.47104689
   0.00000662 -0.00000106  0.36020233
  -0.00000071  0.50000071  0.36020147
   0.49999828  0.00000172  0.36020180
   0.50000106  0.49999338  0.36020233
   0.33355868  0.16644132  0.58333594
   0.33402135  0.66714855  0.58323522
   0.83285145  0.16597865  0.58323522
   0.83283550  0.66716450  0.58301998
   0.00021236  0.00006017  0.52894629
  -0.00004876  0.50004876  0.52886407
   0.49985910  0.00014090  0.52906540
   0.49993983  0.49978764  0.52894629
   0.33333959  0.16666041  0.41679318
   0.33332271  0.66666755  0.41678493
   0.83333245  0.16667729  0.41678493
   0.83334399  0.66665601  0.41678842
   0.16702475  0.33297525  0.64000766
   0.16367462  0.83006158  0.63929067
   0.66993842  0.33632538  0.63929067
   0.66649941  0.83350059  0.64000430
   0.38997207  0.11002793  0.72435277
   0.38839166  0.11160834  0.76463201
Direct configuration=    14
   0.16666116  0.33333884  0.38835669
   0.16666632  0.83332362  0.38835017
   0.66667638  0.33333368  0.38835017
   0.66666452  0.83333548  0.38835584
  -0.00060882 -0.00005268  0.61148273
   0.00006918  0.49993082  0.61143548
   0.49961495  0.00038505  0.61202534
   0.50005268  0.50060882  0.61148273
   0.33344845  0.16655155  0.49990163
   0.33342751  0.66689458  0.50005245
   0.83310542  0.16657249  0.50005245
   0.83334509  0.66665491  0.49997328
   0.16670127  0.33329873  0.47113846
   0.16664111  0.83337181  0.47113127
   0.66662819  0.33335889  0.47113127
   0.66669889  0.83330111  0.47113003
   0.00000141 -0.00000137  0.36032592
   0.00000029  0.49999971  0.36032499
   0.50000106 -0.00000106  0.36032543
   0.50000137  0.49999859  0.36032592
   0.33349552  0.16650448  0.58322406
   0.33388347  0.66702141  0.58315601
   0.83297859  0.16611653  0.58315601
   0.83292699  0.66707301  0.58299051
   0.00015640  0.00004581  0.52886520
  -0.00003483  0.50003483  0.52879665
   0.49989809  0.00010191  0.52894701
   0.49995419  0.49984360  0.52886520
   0.33333733  0.16666267  0.41686608
   0.33332797  0.66666720  0.41685998
   0.83333280  0.16667203  0.41685998
   0.83333978  0.66666022  0.41686250
   0.16694379  0.33305621  0.63986491
   0.16389402  0.83028305  0.63920928
   0.66971695  0.33610598  0.63920928
   0.66655413  0.83344587  0.63985724
   0.38981093  0.11018907  0.72428453
   0.38846547  0.11153453  0.76458930
Direct configuration=    15
   0.16665680  0.33334320  0.38831881
   0.16666463  0.83331535  0.38830703
   0.66668465  0.33333537  0.38830703
   0.66666343  0.83333657  0.38831481
  -0.00069017 -0.00006636  0.61151774
   0.00008702  0.49991298  0.61146700
   0.49962143  0.00037857  0.61206508
   0.50006636  0.50069017  0.61151774
   0.33345365  0.16654635  0.49990277
   0.33344955  0.66691456  0.50005336
   0.83308544  0.16655045  0.50005336
   0.83333554  0.66666446  0.49997239
   0.16670167  0.33329833  0.47113038
   0.16665093  0.83337714  0.47112005
   0.66662286  0.33334907  0.47112005
   0.66669400  0.83330600  0.47112303
   0.00000496 -0.00000219  0.36025923
  -0.00000089  0.50000089  0.36025769
   0.49999895  0.00000105  0.36025851
   0.50000219  0.49999504  0.36025923
   0.33352735  0.16647265  0.58328800
   0.33397745  0.66709234  0.58319541
   0.83290766  0.16602255  0.58319541
   0.83285282  0.66714718  0.58299700
   0.00018139  0.00007666  0.52886666
  -0.00002914  0.50002914  0.52879504
   0.49988782  0.00011218  0.52897212
   0.49992334  0.49981861  0.52886666
   0.33334104  0.16665896  0.41682146
   0.33332771  0.66667237  0.41681914
   0.83332763  0.16667229  0.41681914
   0.83334209  0.66665791  0.41681817
   0.16697844  0.33302156  0.63993675
   0.16377578  0.83014993  0.63925088
   0.66985007  0.33622422  0.63925088
   0.66650803  0.83349197  0.63994341
   0.38994085  0.11005915  0.72424471
   0.38840469  0.11159531  0.76470987
Direct configuration=    16
   0.16665526  0.33334474  0.38830543
   0.16666403  0.83331243  0.38829178
   0.66668757  0.33333597  0.38829178
   0.66666304  0.83333696  0.38830030
  -0.00071892 -0.00007120  0.61153011
   0.00009333  0.49990667  0.61147814
   0.49962372  0.00037628  0.61207913
   0.50007120  0.50071892  0.61153011
   0.33345550  0.16654450  0.49990317
   0.33345734  0.66692162  0.50005368
   0.83307838  0.16654266  0.50005368
   0.83333217  0.66666783  0.49997208
   0.16670181  0.33329819  0.47112752
   0.16665440  0.83337902  0.47111608
   0.66662098  0.33334560  0.47111608
   0.66669227  0.83330773  0.47112056
   0.00000622 -0.00000249  0.36023566
  -0.00000131  0.50000131  0.36023391
   0.49999821  0.00000179  0.36023486
   0.50000249  0.49999378  0.36023566
   0.33353860  0.16646140  0.58331059
   0.33401066  0.66711741  0.58320933
   0.83288259  0.16598934  0.58320933
   0.83282661  0.66717339  0.58299930
   0.00019022  0.00008757  0.52886718
  -0.00002713  0.50002713  0.52879447
   0.49988419  0.00011581  0.52898100
   0.49991243  0.49980978  0.52886718
   0.33334235  0.16665765  0.41680569
   0.33332761  0.66667420  0.41680471
   0.83332580  0.16667239  0.41680471
   0.83334290  0.66665710  0.41680251
   0.16699068  0.33300932  0.63996215
   0.16373399  0.83010289  0.63926558
   0.66989711  0.33626601  0.63926558
   0.66649173  0.83350827  0.63997386
   0.38998678  0.11001322  0.72423063
   0.38838320  0.11161680  0.76475249
Direct configuration=    17
   0.16665265  0.33334735  0.38827865
   0.16666304  0.83330778  0.38826159
   0.66669222  0.33333696  0.38826159
   0.66666228  0.83333772  0.38827115
  -0.00073657 -0.00008061  0.61155616
   0.00009233  0.49990767  0.61150491
   0.49961371  0.00038629  0.61210764
   0.50008061  0.50073657  0.61155616
   0.33345487  0.16654513  0.49990805
   0.33346729  0.66692655  0.50005236
   0.83307345  0.16653271  0.50005236
   0.83332582  0.66667418  0.49997260
   0.16670070  0.33329930  0.47112980
   0.16666206  0.83338150  0.47111650
   0.66661850  0.33333794  0.47111650
   0.66668765  0.83331235  0.47112398
   0.00000777 -0.00000306  0.36020092
  -0.00000207  0.50000207  0.36019871
   0.49999710  0.00000290  0.36019990
   0.50000306  0.49999223  0.36020092
   0.33355389  0.16644611  0.58334409
   0.33406268  0.66715358  0.58322897
   0.83284642  0.16593732  0.58322897
   0.83278312  0.66721688  0.58300098
   0.00020223  0.00010858  0.52886015
  -0.00002166  0.50002166  0.52878688
   0.49988106  0.00011894  0.52898648
   0.49989142  0.49979777  0.52886015
   0.33334457  0.16665543  0.41678175
   0.33332801  0.66667785  0.41678351
   0.83332215  0.16667199  0.41678351
   0.83334389  0.66665611  0.41677878
   0.16700627  0.33299373  0.63999823
   0.16367230  0.83003132  0.63928689
   0.66996868  0.33632770  0.63928689
   0.66646480  0.83353520  0.64001992
   0.39006260  0.10993740  0.72425658
   0.38834911  0.11165089  0.76477287
Direct configuration=    18
   0.16664948  0.33335052  0.38824615
   0.16666184  0.83330214  0.38822495
   0.66669786  0.33333816  0.38822495
   0.66666136  0.83333864  0.38823577
  -0.00075800 -0.00009203  0.61158776
   0.00009110  0.49990890  0.61153739
   0.49960156  0.00039844  0.61214224
   0.50009203  0.50075800  0.61158776
   0.33345410  0.16654590  0.49991398
   0.33347938  0.66693255  0.50005075
   0.83306745  0.16652062  0.50005075
   0.83331813  0.66668187  0.49997322
   0.16669935  0.33330065  0.47113256
   0.16667135  0.83338451  0.47111700
   0.66661549  0.33332865  0.47111700
   0.66668205  0.83331795  0.47112813
   0.00000965 -0.00000376  0.36015875
  -0.00000298  0.50000298  0.36015601
   0.49999576  0.00000424  0.36015748
   0.50000376  0.49999035  0.36015875
   0.33357243  0.16642757  0.58338473
   0.33412581  0.66719747  0.58325279
   0.83280253  0.16587419  0.58325279
   0.83273035  0.66726965  0.58300301
   0.00021679  0.00013408  0.52885161
  -0.00001502  0.50001502  0.52877768
   0.49987727  0.00012273  0.52899313
   0.49986592  0.49978321  0.52885161
   0.33334727  0.16665273  0.41675270
   0.33332849  0.66668229  0.41675778
   0.83331771  0.16667151  0.41675778
   0.83334508  0.66665492  0.41674999
   0.16702519  0.33297481  0.64004202
   0.16359745  0.82994448  0.63931276
   0.67005552  0.33640255  0.63931276
   0.66643213  0.83356787  0.64007582
   0.39015461  0.10984539  0.72428807
   0.38830773  0.11169227  0.76479759
Direct configuration=    19
   0.16664314  0.33335686  0.38818116
   0.16665944  0.83329086  0.38815168
   0.66670914  0.33334056  0.38815168
   0.66665952  0.83334048  0.38816502
  -0.00080085 -0.00011487  0.61165098
   0.00008866  0.49991134  0.61160235
   0.49957726  0.00042274  0.61221145
   0.50011487  0.50080085  0.61165098
   0.33345257  0.16654743  0.49992584
   0.33350354  0.66694453  0.50004754
   0.83305547  0.16649646  0.50004754
   0.83330274  0.66669726  0.49997448
   0.16669665  0.33330335  0.47113809
   0.16668994  0.83339052  0.47111801
   0.66660948  0.33331006  0.47111801
   0.66667085  0.83332915  0.47113642
   0.00001340 -0.00000516  0.36007441
  -0.00000482  0.50000482  0.36007060
   0.49999308  0.00000692  0.36007263
   0.50000516  0.49998660  0.36007441
   0.33360953  0.16639047  0.58346602
   0.33425206  0.66728526  0.58330045
   0.83271474  0.16574794  0.58330045
   0.83262482  0.66737518  0.58300709
   0.00024593  0.00018508  0.52883454
  -0.00000173  0.50000173  0.52875927
   0.49986967  0.00013033  0.52900643
   0.49981492  0.49975407  0.52883454
   0.33335266  0.16664734  0.41669461
   0.33332945  0.66669116  0.41670633
   0.83330884  0.16667055  0.41670633
   0.83334747  0.66665253  0.41669241
   0.16706302  0.33293698  0.64012960
   0.16344774  0.82977079  0.63936448
   0.67022921  0.33655226  0.63936448
   0.66636678  0.83363322  0.64018761
   0.39033864  0.10966136  0.72435105
   0.38822497  0.11177503  0.76484705
Direct configuration=    20
   0.16663046  0.33336954  0.38805117
   0.16665463  0.83326829  0.38800514
   0.66673171  0.33334537  0.38800514
   0.66665584  0.83334416  0.38802351
  -0.00088654 -0.00016055  0.61177740
   0.00008377  0.49991623  0.61173227
   0.49952867  0.00047133  0.61234985
   0.50016055  0.50088654  0.61177740
   0.33344952  0.16655048  0.49994957
   0.33355187  0.66696849  0.50004111
   0.83303151  0.16644813  0.50004111
   0.83327196  0.66672804  0.49997700
   0.16669126  0.33330874  0.47114915
   0.16672712  0.83340255  0.47112002
   0.66659745  0.33327288  0.47112002
   0.66664845  0.83335155  0.47115302
   0.00002092 -0.00000796  0.35990575
  -0.00000848  0.50000848  0.35989978
   0.49998772  0.00001228  0.35990293
   0.50000796  0.49997908  0.35990575
   0.33368372  0.16631628  0.58362860
   0.33450457  0.66746083  0.58339576
   0.83253917  0.16549543  0.58339576
   0.83241375  0.66758625  0.58301524
   0.00030421  0.00028707  0.52880039
   0.00002483  0.49997517  0.52872244
   0.49985448  0.00014552  0.52903303
   0.49971293  0.49969579  0.52880039
   0.33336345  0.16663655  0.41657842
   0.33333137  0.66670890  0.41660342
   0.83329110  0.16666863  0.41660342
   0.83335225  0.66664775  0.41657724
   0.16713869  0.33286131  0.64030476
   0.16314833  0.82942341  0.63946794
   0.67057659  0.33685167  0.63946794
   0.66623608  0.83376392  0.64041119
   0.39070670  0.10929330  0.72447700
   0.38805946  0.11194054  0.76494596
Direct configuration=    21
   0.16660511  0.33339489  0.38779120
   0.16664501  0.83322316  0.38771206
   0.66677684  0.33335499  0.38771206
   0.66664847  0.83335153  0.38774050
  -0.00105794 -0.00025192  0.61203026
   0.00007399  0.49992601  0.61199211
   0.49943149  0.00056851  0.61262667
   0.50025192  0.50105794  0.61203026