CeO2                                    
           1
     7.707464    0.000000    0.000000
    -3.853732    6.674860    0.000000
     0.000000    0.000000   28.319031
   Ce   O    C    O 
  12  24   1   1
Direct configuration=     1
   0.16666700  0.33333300  0.38888900
   0.16666700  0.83333300  0.38888900
   0.66666700  0.33333300  0.38888900
   0.66666700  0.83333300  0.38888900
   0.00000000  0.00000000  0.61111100
   0.00000000  0.50000000  0.61111100
   0.50000000  0.00000000  0.61111100
   0.50000000  0.50000000  0.61111100
   0.33333300  0.16666700  0.50000000
   0.33333300  0.66666700  0.50000000
   0.83333300  0.16666700  0.50000000
   0.83333300  0.66666700  0.50000000
   0.16666700  0.33333300  0.47222200
   0.16666700  0.83333300  0.47222200
   0.66666700  0.33333300  0.47222200
   0.66666700  0.83333300  0.47222200
   0.00000000  0.00000000  0.36111100
   0.00000000  0.50000000  0.36111100
   0.50000000  0.00000000  0.36111100
   0.50000000  0.50000000  0.36111100
   0.33333300  0.16666700  0.58333300
   0.33333300  0.66666700  0.58333300
   0.83333300  0.16666700  0.58333300
   0.83333300  0.66666700  0.58333300
   0.00000000  0.00000000  0.52777800
   0.00000000  0.50000000  0.52777800
   0.50000000  0.00000000  0.52777800
   0.50000000  0.50000000  0.52777800
   0.33333300  0.16666700  0.41666700
   0.33333300  0.66666700  0.41666700
   0.83333300  0.16666700  0.41666700
   0.83333300  0.66666700  0.41666700
   0.16666700  0.33333300  0.63888900
   0.16666700  0.83333300  0.63888900
   0.66666700  0.33333300  0.63888900
   0.66666700  0.83333300  0.63888900
   0.22222200  0.50000000  0.72389500
   0.37039000  0.50000000  0.72389500
Direct configuration=     2
   0.16666625  0.33333102  0.38860339
   0.16666387  0.83333327  0.38860375
   0.66666711  0.33333451  0.38860406
   0.66666979  0.83333382  0.38860387
  -0.00033733 -0.00047904  0.61133335
  -0.00065870  0.50009148  0.61147098
   0.50017578  0.00027454  0.61139409
   0.50103670  0.50029584  0.61137148
   0.33333559  0.16666577  0.49999518
   0.33332612  0.66666804  0.49998859
   0.83333158  0.16667224  0.50000120
   0.83333806  0.66666274  0.50000711
   0.16667107  0.33333657  0.47179501
   0.16666915  0.83333395  0.47179508
   0.66666425  0.33333282  0.47179518
   0.66666325  0.83332958  0.47179558
   0.00000326  0.00000137  0.36090873
   0.00000365  0.50000200  0.36090872
   0.49999650 -0.00000192  0.36090842
   0.49999732  0.49999908  0.36090849
   0.33327324  0.16675132  0.58313131
   0.33329378  0.66655793  0.58314231
   0.83338839  0.16668415  0.58311851
   0.83333868  0.66670317  0.58311000
   0.00000801  0.00000168  0.52820835
   0.00001362  0.50000929  0.52819863
   0.49998664 -0.00001123  0.52820004
   0.49999192  0.49999510  0.52821011
   0.33332945  0.16666523  0.41688481
   0.33333050  0.66666523  0.41688576
   0.83333681  0.16666757  0.41688455
   0.83333676  0.66666979  0.41688460
   0.16538996  0.33201563  0.63865482
   0.16683350  0.83350710  0.63904699
   0.66656507  0.33323360  0.63899200
   0.66672593  0.83350619  0.63902870
   0.21937295  0.49999664  0.72392852
   0.37421352  0.50086392  0.72448770
Direct configuration=     3
   0.16666678  0.33333243  0.38880662
   0.16666610  0.83333308  0.38880672
   0.66666703  0.33333343  0.38880681
   0.66666781  0.83333324  0.38880676
  -0.00009730 -0.00013817  0.61117513
  -0.00019000  0.50002639  0.61121483
   0.50005070  0.00007919  0.61119265
   0.50029902  0.50008533  0.61118613
   0.33333375  0.16666665  0.49999861
   0.33333102  0.66666730  0.49999671
   0.83333259  0.16666851  0.50000035
   0.83333446  0.66666577  0.50000205
   0.16666817  0.33333403  0.47209884
   0.16666762  0.83333327  0.47209886
   0.66666621  0.33333295  0.47209889
   0.66666592  0.83333201  0.47209900
   0.00000094  0.00000040  0.36105266
   0.00000105  0.50000058  0.36105265
   0.49999899 -0.00000055  0.36105257
   0.49999923  0.49999973  0.36105259
   0.33331576  0.16669132  0.58327483
   0.33332169  0.66663554  0.58327800
   0.83334898  0.16667195  0.58327113
   0.83333464  0.66667743  0.58326868
   0.00000231  0.00000048  0.52790213
   0.00000393  0.50000268  0.52789933
   0.49999615 -0.00000324  0.52789973
   0.49999767  0.49999859  0.52790264
   0.33333198  0.16666649  0.41672982
   0.33333228  0.66666649  0.41673010
   0.83333410  0.16666716  0.41672975
   0.83333408  0.66666781  0.41672976
   0.16629865  0.33295302  0.63882145
   0.16671503  0.83338322  0.63893457
   0.66663760  0.33330433  0.63891871
   0.66668400  0.83338296  0.63892929
   0.22140022  0.49999903  0.72390467
   0.37149285  0.50024919  0.72406596
Direct configuration=     4
   0.16666621  0.33333194  0.38867536
   0.16666500  0.83333308  0.38867554
   0.66666702  0.33333376  0.38867580
   0.66666837  0.83333367  0.38867577
  -0.00024943 -0.00034587  0.61127624
  -0.00048097  0.50006430  0.61137702
   0.50012522  0.00019419  0.61131947
   0.50076166  0.50022234  0.61130555
   0.33333599  0.16666668  0.49999704
   0.33332602  0.66666686  0.49999394
   0.83333130  0.16667287  0.50000175
   0.83333721  0.66666200  0.50000184
   0.16667052  0.33333565  0.47189560
   0.16666780  0.83333375  0.47189576
   0.66666439  0.33333329  0.47189594
   0.66666417  0.83332966  0.47189618
   0.00000168  0.00000074  0.36095089
   0.00000201  0.50000114  0.36095091
   0.49999776 -0.00000128  0.36095079
   0.49999822  0.49999948  0.36095083
   0.33330086  0.16673525  0.58318518
   0.33330642  0.66658572  0.58319560
   0.83335753  0.16667819  0.58317402
   0.83333133  0.66668566  0.58316939
   0.00000349 -0.00000340  0.52810631
   0.00000573  0.50000846  0.52810081
   0.49999015 -0.00000699  0.52810164
   0.50000018  0.49999807  0.52810948
   0.33333097  0.16666592  0.41682632
   0.33333157  0.66666595  0.41682688
   0.83333481  0.16666709  0.41682602
   0.83333493  0.66666848  0.41682626
   0.16568238  0.33232921  0.63871626
   0.16679497  0.83346184  0.63901516
   0.66659006  0.33326155  0.63897280
   0.66671025  0.83346251  0.63899947
   0.22170154  0.49998733  0.72391609
   0.37168466  0.50068094  0.72436008
Direct configuration=     5
   0.16666516  0.33333104  0.38843296
   0.16666298  0.83333308  0.38843329
   0.66666700  0.33333436  0.38843384
   0.66666941  0.83333447  0.38843386
  -0.00053037 -0.00072942  0.61146296
  -0.00101833  0.50013431  0.61167654
   0.50026284  0.00040656  0.61155367
   0.50161603  0.50047536  0.61152607
   0.33334014  0.16666675  0.49999415
   0.33331680  0.66666606  0.49998883
   0.83332892  0.16668092  0.50000435
   0.83334230  0.66665503  0.50000146
   0.16667485  0.33333863  0.47152028
   0.16666813  0.83333464  0.47152069
   0.66666102  0.33333392  0.47152115
   0.66666094  0.83332530  0.47152163
   0.00000305  0.00000137  0.36076296
   0.00000378  0.50000217  0.36076303
   0.49999550 -0.00000262  0.36076284
   0.49999635  0.49999902  0.36076290
   0.33327333  0.16681638  0.58301962
   0.33327824  0.66649371  0.58304344
   0.83337332  0.16668971  0.58299468
   0.83332523  0.66670085  0.58298604
   0.00000568 -0.00001058  0.52848337
   0.00000906  0.50001914  0.52847289
   0.49997908 -0.00001393  0.52847450
   0.50000480  0.49999712  0.52849145
   0.33332911  0.16666487  0.41700452
   0.33333026  0.66666494  0.41700561
   0.83333613  0.16666697  0.41700380
   0.83333648  0.66666972  0.41700448
   0.16454429  0.33117718  0.63852200
   0.16694262  0.83360702  0.63916398
   0.66650227  0.33318254  0.63907268
   0.66675874  0.83360942  0.63912907
   0.22225799  0.49996573  0.72393719
   0.37203887  0.50147828  0.72490325
Direct configuration=     6
   0.16666465  0.33333062  0.38831748
   0.16666202  0.83333308  0.38831788
   0.66666699  0.33333464  0.38831858
   0.66666991  0.83333485  0.38831862
  -0.00066421 -0.00091215  0.61155191
  -0.00127432  0.50016767  0.61181922
   0.50032840  0.00050773  0.61166524
   0.50202304  0.50059589  0.61163113
   0.33334212  0.16666679  0.49999277
   0.33331241  0.66666567  0.49998640
   0.83332779  0.16668475  0.50000558
   0.83334472  0.66665172  0.50000127
   0.16667691  0.33334005  0.47134148
   0.16666828  0.83333506  0.47134200
   0.66665942  0.33333422  0.47134261
   0.66665941  0.83332323  0.47134319
   0.00000370  0.00000167  0.36067343
   0.00000462  0.50000267  0.36067352
   0.49999442 -0.00000326  0.36067330
   0.49999546  0.49999880  0.36067337
   0.33326022  0.16685503  0.58294074
   0.33326481  0.66644987  0.58297095
   0.83338084  0.16669520  0.58290925
   0.83332232  0.66670809  0.58289869
   0.00000672 -0.00001400  0.52866300
   0.00001064  0.50002423  0.52865015
   0.49997381 -0.00001723  0.52865213
   0.50000701  0.49999667  0.52867342
   0.33332822  0.16666436  0.41708941
   0.33332964  0.66666446  0.41709076
   0.83333676  0.16666690  0.41708849
   0.83333722  0.66667031  0.41708938
   0.16400211  0.33062837  0.63842945
   0.16701296  0.83367618  0.63923488
   0.66646045  0.33314490  0.63912027
   0.66678184  0.83367941  0.63919080
   0.22252308  0.49995544  0.72394725
   0.37220762  0.50185813  0.72516201
Direct configuration=     7
   0.16666278  0.33332990  0.38831840
   0.16666279  0.83333327  0.38831774
   0.66666752  0.33333294  0.38831856
   0.66667011  0.83333682  0.38831894
  -0.00056851 -0.00071640  0.61153904
  -0.00108202  0.50011442  0.61180904
   0.50023661  0.00037997  0.61163065
   0.50179413  0.50054505  0.61159755
   0.33333737  0.16666571  0.50000336
   0.33329000  0.66665268  0.50001213
   0.83333773  0.16670308  0.50001568
   0.83336047  0.66664771  0.49997064
   0.16668090  0.33333816  0.47128153
   0.16665805  0.83333425  0.47128233
   0.66665963  0.33334443  0.47128383
   0.66666506  0.83331561  0.47128479
   0.00000312  0.00000057  0.36059264
   0.00000372  0.50000309  0.36059286
   0.49999443 -0.00000300  0.36059275
   0.49999661  0.49999917  0.36059284
   0.33337176  0.16689294  0.58297536
   0.33329053  0.66645056  0.58302716
   0.83322413  0.16667150  0.58293266
   0.83327413  0.66664164  0.58294276
  -0.00001807 -0.00006415  0.52871025
  -0.00002992  0.50004605  0.52871202
   0.49997097 -0.00000893  0.52870796
   0.50007660  0.50002062  0.52873605
   0.33332968  0.16666405  0.41704248
   0.33333024  0.66666605  0.41704329
   0.83333474  0.16666657  0.41704124
   0.83333678  0.66666939  0.41704407
   0.16378996  0.33041454  0.63843186
   0.16701271  0.83367109  0.63931170
   0.66646184  0.33320125  0.63919689
   0.66678049  0.83365125  0.63926409
   0.22269990  0.49994472  0.72395169
   0.37234502  0.50214342  0.72536316
Direct configuration=     8
   0.16665904  0.33332847  0.38832024
   0.16666434  0.83333364  0.38831748
   0.66666858  0.33332956  0.38831852
   0.66667051  0.83334074  0.38831959
  -0.00037795 -0.00032661  0.61151343
  -0.00069911  0.50000839  0.61178877
   0.50005386  0.00012557  0.61156178
   0.50133832  0.50044381  0.61153070
   0.33332791  0.16666357  0.50002444
   0.33324539  0.66662681  0.50006338
   0.83335752  0.16673957  0.50003578
   0.83339185  0.66663975  0.49990964
   0.16668883  0.33333440  0.47116217
   0.16663767  0.83333264  0.47116350
   0.66666006  0.33336476  0.47116679
   0.66667632  0.83330044  0.47116849
   0.00000195 -0.00000161  0.36043178
   0.00000193  0.50000393  0.36043225
   0.49999446 -0.00000249  0.36043234
   0.49999889  0.49999992  0.36043249
   0.33359387  0.16696844  0.58304427
   0.33334174  0.66645194  0.58313908
   0.83291210  0.16662431  0.58297928
   0.83317818  0.66650933  0.58303051
  -0.00006743 -0.00016401  0.52880435
  -0.00011069  0.50008950  0.52883521
   0.49996531  0.00000761  0.52881911
   0.50021516  0.50006832  0.52886076
   0.33333259  0.16666341  0.41694905
   0.33333143  0.66666922  0.41694876
   0.83333073  0.16666590  0.41694715
   0.83333590  0.66666756  0.41695386
   0.16336755  0.32998877  0.63843665
   0.16701222  0.83366094  0.63946467
   0.66646460  0.33331344  0.63934948
   0.66677782  0.83359520  0.63941003
   0.22305198  0.49992336  0.72396053
   0.37261860  0.50271150  0.72576370
Direct configuration=     9
   0.16665157  0.33332562  0.38832392
   0.16666743  0.83333439  0.38831694
   0.66667071  0.33332279  0.38831844
   0.66667129  0.83334859  0.38832089
   0.00000316  0.00045295  0.61146221
   0.00006672  0.49979633  0.61174823
   0.49968835 -0.00038322  0.61142403
   0.50042671  0.50024134  0.61139699
   0.33330899  0.16665928  0.50006662
   0.33315616  0.66657508  0.50016586
   0.83339710  0.16681256  0.50007599
   0.83345459  0.66662381  0.49978763
   0.16670469  0.33332689  0.47092345
   0.16659692  0.83332941  0.47092583
   0.66666092  0.33340543  0.47093272
   0.66669885  0.83327010  0.47093589
  -0.00000039 -0.00000598  0.36011005
  -0.00000166  0.50000561  0.36011104
   0.49999451 -0.00000146  0.36011153
   0.50000345  0.50000141  0.36011180
   0.33403808  0.16711943  0.58318211
   0.33344416  0.66645469  0.58336293
   0.83228804  0.16652994  0.58307252
   0.83298627  0.66624469  0.58320601
  -0.00016617 -0.00036373  0.52899254
  -0.00027224  0.50017640  0.52908158
   0.49995399  0.00004070  0.52904141
   0.50049230  0.50016372  0.52911017
   0.33333840  0.16666214  0.41676217
   0.33333382  0.66667554  0.41675971
   0.83332270  0.16666456  0.41675897
   0.83333415  0.66666391  0.41677345
   0.16252271  0.32913723  0.63844623
   0.16701124  0.83364064  0.63977062
   0.66647012  0.33353782  0.63965464
   0.66677246  0.83348308  0.63970190
   0.22375614  0.49988066  0.72397821
   0.37316577  0.50384764  0.72656476
Direct configuration=    10
   0.16665621  0.33332739  0.38832164
   0.16666551  0.83333393  0.38831727
   0.66666939  0.33332700  0.38831849
   0.66667080  0.83334371  0.38832008
  -0.00023355 -0.00003124  0.61149402
  -0.00040894  0.49992804  0.61177341
   0.49991537 -0.00006721  0.61150959
   0.50099292  0.50036710  0.61148004
   0.33332074  0.16666194  0.50004042
   0.33321158  0.66660721  0.50010221
   0.83337251  0.16676723  0.50005102
   0.83341562  0.66663371  0.49986341
   0.16669484  0.33333156  0.47107172
   0.16662223  0.83333141  0.47107345
   0.66666039  0.33338017  0.47107810
   0.66668486  0.83328894  0.47108036
   0.00000106 -0.00000327  0.36030988
   0.00000057  0.50000457  0.36031055
   0.49999448 -0.00000210  0.36031078
   0.50000062  0.50000048  0.36031098
   0.33376218  0.16702565  0.58309650
   0.33338055  0.66645298  0.58322390
   0.83267565  0.16658855  0.58301461
   0.83310547  0.66640906  0.58309701
  -0.00010484 -0.00023968  0.52887566
  -0.00017190  0.50012243  0.52892856
   0.49996102  0.00002015  0.52890334
   0.50032017  0.50010447  0.52895526
   0.33333479  0.16666293  0.41687824
   0.33333234  0.66667161  0.41687713
   0.83332769  0.16666539  0.41687585
   0.83333524  0.66666618  0.41688550
   0.16304744  0.32966613  0.63844028
   0.16701185  0.83365325  0.63958059
   0.66646669  0.33339846  0.63946510
   0.66677579  0.83355272  0.63952062
   0.22331878  0.49990718  0.72396723
   0.37282592  0.50314198  0.72606722
Direct configuration=    11
   0.16665680  0.33332926  0.38830353
   0.16667398  0.83333648  0.38829778
   0.66666585  0.33331934  0.38829898
   0.66666504  0.83334647  0.38830185
  -0.00020761  0.00003700  0.61149886
  -0.00034127  0.49989630  0.61178279
   0.49986471 -0.00012977  0.61151056
   0.50089914  0.50033904  0.61147199
   0.33331700  0.16666142  0.50004404
   0.33319793  0.66659777  0.50011242
   0.83337688  0.16677670  0.50005476
   0.83342607  0.66663327  0.49984753
   0.16670095  0.33333576  0.47105084
   0.16662199  0.83333038  0.47105012
   0.66665801  0.33338295  0.47105458
   0.66668110  0.83328269  0.47105800
   0.00000006 -0.00000541  0.36024995
  -0.00000126  0.50000517  0.36025065
   0.49999473 -0.00000141  0.36025077
   0.50000301  0.50000100  0.36025125
   0.33384098  0.16705004  0.58311966
   0.33339322  0.66644301  0.58326540
   0.83255119  0.16656583  0.58302887
   0.83307365  0.66636366  0.58312939
  -0.00011402 -0.00026282  0.52888980
  -0.00018210  0.50014014  0.52895385
   0.49994436  0.00000886  0.52892133
   0.50035403  0.50012155  0.52897921
   0.33333597  0.16666217  0.41684175
   0.33333181  0.66667271  0.41684156
   0.83332631  0.16666589  0.41683896
   0.83333565  0.66666496  0.41684774
   0.16292006  0.32952990  0.63844930
   0.16701773  0.83364779  0.63963495
   0.66646603  0.33344028  0.63952134
   0.66676387  0.83352551  0.63957338
   0.22310116  0.49989823  0.72396859
   0.37329901  0.50338791  0.72624367
Direct configuration=    12
   0.16665704  0.33333004  0.38829602
   0.16667750  0.83333753  0.38828969
   0.66666438  0.33331616  0.38829089
   0.66666264  0.83334761  0.38829428
  -0.00019685  0.00006531  0.61150087
  -0.00031320  0.49988313  0.61178668
   0.49984369 -0.00015573  0.61151097
   0.50086023  0.50032740  0.61146866
   0.33331545  0.16666120  0.50004554
   0.33319227  0.66659385  0.50011665
   0.83337869  0.16678063  0.50005631
   0.83343041  0.66663309  0.49984095
   0.16670349  0.33333751  0.47104218
   0.16662189  0.83332995  0.47104044
   0.66665702  0.33338410  0.47104482
   0.66667954  0.83328010  0.47104873
  -0.00000035 -0.00000630  0.36022509
  -0.00000202  0.50000543  0.36022581
   0.49999484 -0.00000112  0.36022588
   0.50000400  0.50000121  0.36022647
   0.33387367  0.16706016  0.58312927
   0.33339848  0.66643887  0.58328262
   0.83249956  0.16655640  0.58303479
   0.83306045  0.66634482  0.58314282
  -0.00011783 -0.00027242  0.52889567
  -0.00018632  0.50014749  0.52896434
   0.49993745  0.00000418  0.52892879
   0.50036807  0.50012863  0.52898915
   0.33333646  0.16666186  0.41682661
   0.33333159  0.66667316  0.41682681
   0.83332573  0.16666610  0.41682366
   0.83333582  0.66666445  0.41683207
   0.16286722  0.32947339  0.63845304
   0.16702017  0.83364553  0.63965750
   0.66646576  0.33345762  0.63954467
   0.66675893  0.83351423  0.63959526
   0.22301088  0.49989452  0.72396916
   0.37349525  0.50348993  0.72631687
Direct configuration=    13
   0.16665919  0.33333293  0.38826863
   0.16668764  0.83334064  0.38826126
   0.66665922  0.33330757  0.38826231
   0.66665492  0.83334953  0.38826723
  -0.00024335 -0.00000447  0.61151963
  -0.00038070  0.49988252  0.61181030
   0.49984904 -0.00013770  0.61154275
   0.50092288  0.50033259  0.61148767
   0.33331469  0.16666100  0.50004144
   0.33319204  0.66659215  0.50010950
   0.83337513  0.16677809  0.50005288
   0.83343173  0.66663556  0.49984350
   0.16670918  0.33334529  0.47105648
   0.16662938  0.83332890  0.47105080
   0.66665324  0.33337996  0.47105433
   0.66666940  0.83327691  0.47105960
  -0.00000134 -0.00000838  0.36020038
  -0.00000392  0.50000585  0.36020100
   0.49999498 -0.00000049  0.36020078
   0.50000610  0.50000149  0.36020180
   0.33389875  0.16706489  0.58313531
   0.33339533  0.66642282  0.58329831
   0.83244243  0.16654168  0.58303677
   0.83305291  0.66633200  0.58315461
  -0.00011155 -0.00026611  0.52888105
  -0.00016852  0.50015606  0.52895412
   0.49991395 -0.00002033  0.52891261
   0.50036166  0.50013457  0.52897612
   0.33333674  0.16666097  0.41681027
   0.33333012  0.66667336  0.41681226
   0.83332529  0.16666707  0.41680703
   0.83333674  0.66666347  0.41681267
   0.16284146  0.32943913  0.63846431
   0.16702914  0.83364188  0.63967681
   0.66646410  0.33347300  0.63956651
   0.66674458  0.83349954  0.63961437
   0.22306914  0.49989946  0.72397434
   0.37357029  0.50361662  0.72641027
Direct configuration=    14
   0.16666565  0.33334159  0.38818645
   0.16671808  0.83334995  0.38817597
   0.66664373  0.33328181  0.38817658
   0.66663174  0.83335527  0.38818609
  -0.00038287 -0.00021379  0.61157592
  -0.00058319  0.49988070  0.61188118
   0.49986510 -0.00008363  0.61163809
   0.50111082  0.50034815  0.61154469
   0.33331241  0.16666040  0.50002914
   0.33319134  0.66658707  0.50008804
   0.83336444  0.16677046  0.50004257
   0.83343571  0.66664295  0.49985115
   0.16672625  0.33336864  0.47109937
   0.16665184  0.83332575  0.47108188
   0.66664189  0.33336755  0.47108284
   0.66663897  0.83326735  0.47109222
  -0.00000431 -0.00001461  0.36012625
  -0.00000962  0.50000711  0.36012657
   0.49999541  0.00000143  0.36012549
   0.50001242  0.50000231  0.36012782
   0.33397398  0.16707908  0.58315344
   0.33338587  0.66637469  0.58334537
   0.83227104  0.16649754  0.58304272
   0.83303030  0.66629354  0.58319000
  -0.00009272 -0.00024717  0.52883721
  -0.00011510  0.50018179  0.52892347
   0.49984344 -0.00009388  0.52886406
   0.50034242  0.50015238  0.52893701
   0.33333758  0.16665831  0.41676125
   0.33332574  0.66667395  0.41676863
   0.83332396  0.16667000  0.41675714
   0.83333949  0.66666050  0.41675445
   0.16276420  0.32933635  0.63849814
   0.16705603  0.83363094  0.63973471
   0.66645911  0.33351911  0.63963203
   0.66670151  0.83345546  0.63967168
   0.22324393  0.49991427  0.72398989
   0.37379542  0.50399668  0.72669047
Direct configuration=    15
   0.16667857  0.33335892  0.38802210
   0.16677894  0.83336857  0.38800538
   0.66661275  0.33323028  0.38800513
   0.66658539  0.83336674  0.38802380
  -0.00066189 -0.00063245  0.61168850
  -0.00098816  0.49987706  0.61202294
   0.49989722  0.00002451  0.61182878
   0.50148669  0.50037927  0.61165873
   0.33330784  0.16665919  0.50000454
   0.33318995  0.66657691  0.50004513
   0.83334307  0.16675522  0.50002195
   0.83344366  0.66665773  0.49986646
   0.16676040  0.33341533  0.47118516
   0.16669677  0.83331946  0.47114404
   0.66661919  0.33334273  0.47113986
   0.66657811  0.83324822  0.47115746
  -0.00001024 -0.00002708  0.35997799
  -0.00002103  0.50000964  0.35997772
   0.49999626  0.00000527  0.35997491
   0.50002505  0.50000396  0.35997986
   0.33412446  0.16710745  0.58318970
   0.33336696  0.66627843  0.58343950
   0.83192825  0.16640924  0.58305462
   0.83298509  0.66621663  0.58326078
  -0.00005505 -0.00020929  0.52874952
  -0.00000828  0.50023324  0.52886216
   0.49970242 -0.00024096  0.52876697
   0.50030394  0.50018801  0.52885880
   0.33333926  0.16665299  0.41666321
   0.33331696  0.66667512  0.41668137
   0.83332130  0.16667586  0.41665735
   0.83334500  0.66665458  0.41663801
   0.16260967  0.32913079  0.63856580
   0.16710982  0.83360905  0.63985052
   0.66644914  0.33361134  0.63976308
   0.66661537  0.83336731  0.63978630
   0.22359350  0.49994391  0.72402099
   0.37424566  0.50475680  0.72725088
Direct configuration=    16
   0.16670440  0.33339357  0.38769339
   0.16690068  0.83340582  0.38766422
   0.66655078  0.33312724  0.38766222
   0.66649268  0.83338970  0.38769923
  -0.00121995 -0.00146976  0.61191366
  -0.00179811  0.49986978  0.61230645
   0.49996146  0.00024079  0.61221015
   0.50223843  0.50044152  0.61188682
   0.33329870  0.16665679  0.49995535
   0.33318716  0.66655658  0.49995929
   0.83330032  0.16672472  0.49998072
   0.83345956  0.66668728  0.49989707
   0.16682869  0.33350872  0.47135674
   0.16678663  0.83330687  0.47126835
   0.66657381  0.33329310  0.47125391
   0.66645639  0.83320997  0.47128793
  -0.00002211 -0.00005201  0.35968147
  -0.00004385  0.50001470  0.35968001
   0.49999796  0.00001294  0.35967374
   0.50005032  0.50000725  0.35968392
   0.33442540  0.16716418  0.58326223
   0.33332914  0.66608590  0.58362777
   0.83124267  0.16623266  0.58307841
   0.83289465  0.66606279  0.58340232
   0.00002028 -0.00013353  0.52857414
   0.00020538  0.50033613  0.52873953
   0.49942040 -0.00053514  0.52857279
   0.50022698  0.50025927  0.52870239
   0.33334263  0.16664236  0.41646713
   0.33329942  0.66667748  0.41650685
   0.83331597  0.16668758  0.41645779
   0.83335600  0.66664273  0.41640514
   0.16230062  0.32871968  0.63870111
   0.16721740  0.83356528  0.64008213
   0.66642919  0.33379581  0.64002518
   0.66644309  0.83319101  0.64001555
   0.22429264  0.50000319  0.72408319
   0.37514616  0.50627705  0.72837170
Direct configuration=    17
   0.16670136  0.33338726  0.38764213
   0.16687780  0.83339844  0.38761200
   0.66655992  0.33314686  0.38760921
   0.66650743  0.83338139  0.38764993
  -0.00124890 -0.00148388  0.61193979
  -0.00178998  0.49982400  0.61234509
   0.49989947  0.00017902  0.61224682
   0.50215804  0.50039050  0.61190916
   0.33332683  0.16664346  0.49994646
   0.33319418  0.66657911  0.49996227
   0.83324420  0.16671023  0.49997096
   0.83346158  0.66667744  0.49987539
   0.16682858  0.33351333  0.47136492
   0.16677158  0.83329520  0.47126727
   0.66658028  0.33330122  0.47125683
   0.66645784  0.83320378  0.47128996
  -0.00001845 -0.00004308  0.35959611
  -0.00003681  0.50001022  0.35959306
   0.49999645  0.00000920  0.35958438
   0.50003877  0.50000362  0.35959796
   0.33447852  0.16714217  0.58330358
   0.33332040  0.66605951  0.58369274
   0.83107282  0.16617000  0.58311332
   0.83288954  0.66604604  0.58345263
   0.00001113 -0.00015170  0.52856093
   0.00021590  0.50036335  0.52872953
   0.49934695 -0.00060871  0.52854578
   0.50025626  0.50028797  0.52868263
   0.33333817  0.16664239  0.41639372
   0.33329453  0.66667230  0.41643433
   0.83332067  0.16668980  0.41638551
   0.83335764  0.66664275  0.41633187
   0.16225205  0.32860693  0.63875919
   0.16718429  0.83355835  0.64014739
   0.66643989  0.33385515  0.64011088
   0.66645741  0.83315923  0.64008445
   0.22430654  0.50003492  0.72410286
   0.37555913  0.50670225  0.72869898
Direct configuration=    18
   0.16669516  0.33337442  0.38753776
   0.16683121  0.83338342  0.38750569
   0.66657854  0.33318682  0.38750127
   0.66653746  0.83336445  0.38754957
  -0.00130785 -0.00151264  0.61199297
  -0.00177345  0.49973078  0.61242376
   0.49977326  0.00005325  0.61232147
   0.50199438  0.50028664  0.61195465
   0.33338408  0.16661633  0.49992836
   0.33320847  0.66662497  0.49996832
   0.83312995  0.16668073  0.49995110
   0.83346569  0.66665740  0.49983125
   0.16682836  0.33352271  0.47138158
   0.16674096  0.83327144  0.47126506
   0.66659346  0.33331776  0.47126278
   0.66646078  0.83319117  0.47129408
  -0.00001100 -0.00002491  0.35942233
  -0.00002248  0.50000108  0.35941604
   0.49999337  0.00000158  0.35940246
   0.50001524  0.49999625  0.35942294
   0.33458666  0.16709736  0.58338778
   0.33330261  0.66600578  0.58382502
   0.83072704  0.16604243  0.58318440
   0.83287914  0.66601192  0.58355505
  -0.00000751 -0.00018871  0.52853402
   0.00023731  0.50041877  0.52870916
   0.49919741 -0.00075850  0.52849078
   0.50031585  0.50034641  0.52864241
   0.33332908  0.16664245  0.41624426
   0.33328458  0.66666175  0.41628667
   0.83333024  0.16669431  0.41623836
   0.83336098  0.66664279  0.41618271
   0.16215317  0.32837739  0.63887744
   0.16711687  0.83354425  0.64028025
   0.66646168  0.33397597  0.64028535
   0.66648657  0.83309453  0.64022472
   0.22433485  0.50009952  0.72414290
   0.37639988  0.50756790  0.72936527
Direct configuration=    19
   0.16669321  0.33337096  0.38751922
   0.16681746  0.83337876  0.38748659
   0.66658445  0.33319872  0.38748158
   0.66654636  0.83335974  0.38753154
  -0.00130941 -0.00149939  0.61200076
  -0.00174904  0.49970652  0.61243698
   0.49973870  0.00001466  0.61233079
   0.50193325  0.50025808  0.61196092
   0.33339682  0.16660937  0.49992470
   0.33321071  0.66663513  0.49997178
   0.83310354  0.16667422  0.49994688
   0.83346715  0.66665250  0.49981928
   0.16682565  0.33352183  0.47137997
   0.16672963  0.83326553  0.47125951
   0.66659837  0.33332325  0.47125989
   0.66646566  0.83318949  0.47129012
  -0.00000893 -0.00001972  0.35938409
  -0.00001850  0.49999857  0.35937696
   0.49999272 -0.00000035  0.35936231
   0.50000884  0.49999434  0.35938436
   0.33460634  0.16708334  0.58340766
   0.33329809  0.66599634  0.58385453
   0.83065546  0.16601388  0.58320250
   0.83287897  0.66600678  0.58357758
  -0.00001475 -0.00020019  0.52853276
   0.00023665  0.50042988  0.52870810
   0.49916528 -0.00079045  0.52848244
   0.50033356  0.50035951  0.52863692
   0.33332707  0.16664281  0.41621039
   0.33328272  0.66665926  0.41625265
   0.83333240  0.16669512  0.41620521
   0.83336130  0.66664284  0.41614984
   0.16213657  0.32832825  0.63890600
   0.16709520  0.83354150  0.64030915
   0.66646802  0.33400190  0.64032452
   0.66649943  0.83308283  0.64025559
   0.22446858  0.50012331  0.72415714
   0.37645448  0.50775086  0.72950874
Direct configuration=    20
   0.16668737  0.33336057  0.38746362
   0.16677620  0.83336479  0.38742930
   0.66660217  0.33323443  0.38742253
   0.66657307  0.83334560  0.38747745
  -0.00131409 -0.00145964  0.61202415
  -0.00167580  0.49963375  0.61247664
   0.49963501 -0.00010110  0.61235873
   0.50174984  0.50017241  0.61197973
   0.33343504  0.16658849  0.49991373
   0.33321743  0.66666560  0.49998216
   0.83302433  0.16665467  0.49993424
   0.83347153  0.66663778  0.49978337
   0.16681751  0.33351919  0.47137512
   0.16669565  0.83324780  0.47124288
   0.66661309  0.33333970  0.47125122
   0.66648032  0.83318444  0.47127826
  -0.00000273 -0.00000415  0.35926940
  -0.00000655  0.49999104  0.35925971
   0.49999077 -0.00000614  0.35924188
   0.49998964  0.49998864  0.35926863
   0.33466536  0.16704127  0.58346728
   0.33328453  0.66596803  0.58394306
   0.83044072  0.16592823  0.58325681
   0.83287848  0.66599134  0.58364518
  -0.00003644 -0.00023462  0.52852897
   0.00023464  0.50046321  0.52870491
   0.49906889 -0.00088630  0.52845743
   0.50038667  0.50039882  0.52862048
   0.33332105  0.16664389  0.41610879
   0.33327712  0.66665179  0.41615058
   0.83333887  0.16669754  0.41610576
   0.83336225  0.66664299  0.41605124
   0.16208676  0.32818083  0.63899168
   0.16703018  0.83353328  0.64039585
   0.66648702  0.33407967  0.64044204
   0.66653803  0.83304774  0.64034821
   0.22486980  0.50019469  0.72419987
   0.37661827  0.50829972  0.72993914
Direct configuration=    21
   0.16667567  0.33333978  0.38735241
   0.16669368  0.83333684  0.38731471
   0.66663761  0.33330586  0.38730443
   0.66662650  0.83331732  0.38736926
  -0.00132346 -0.00138013  0.61207093
  -0.00152933  0.49948819  0.61255594
   0.49942764 -0.00033263  0.61241462
   0.50138302  0.50000105  0.61201736