CeO2                                    
           1
     7.707464    0.000000    0.000000
    -3.853732    6.674860    0.000000
     0.000000    0.000000   28.319031
   Ce   O    C    O 
  12  24   1   1
Direct configuration=     1
   0.16666700  0.33333300  0.38888900
   0.16666700  0.83333300  0.38888900
   0.66666700  0.33333300  0.38888900
   0.66666700  0.83333300  0.38888900
   0.00000000  0.00000000  0.61111100
   0.00000000  0.50000000  0.61111100
   0.50000000  0.00000000  0.61111100
   0.50000000  0.50000000  0.61111100
   0.33333300  0.16666700  0.50000000
   0.33333300  0.66666700  0.50000000
   0.83333300  0.16666700  0.50000000
   0.83333300  0.66666700  0.50000000
   0.16666700  0.33333300  0.47222200
   0.16666700  0.83333300  0.47222200
   0.66666700  0.33333300  0.47222200
   0.66666700  0.83333300  0.47222200
   0.00000000  0.00000000  0.36111100
   0.00000000  0.50000000  0.36111100
   0.50000000  0.00000000  0.36111100
   0.50000000  0.50000000  0.36111100
   0.33333300  0.16666700  0.58333300
   0.33333300  0.66666700  0.58333300
   0.83333300  0.16666700  0.58333300
   0.83333300  0.66666700  0.58333300
   0.00000000  0.00000000  0.52777800
   0.00000000  0.50000000  0.52777800
   0.50000000  0.00000000  0.52777800
   0.50000000  0.50000000  0.52777800
   0.33333300  0.16666700  0.41666700
   0.33333300  0.66666700  0.41666700
   0.83333300  0.16666700  0.41666700
   0.83333300  0.66666700  0.41666700
   0.16666700  0.33333300  0.63888900
   0.16666700  0.83333300  0.63888900
   0.66666700  0.33333300  0.63888900
   0.66666700  0.83333300  0.63888900
   0.50000000  0.05555600  0.72389500
   0.35183200  0.05555600  0.72389500
Direct configuration=     2
   0.16666407  0.33333461  0.38861606
   0.16666726  0.83332933  0.38861482
   0.66667036  0.33333181  0.38861455
   0.66666511  0.83333473  0.38861629
  -0.00016765 -0.00007140  0.61142945
   0.00023374  0.50014778  0.61136088
   0.50033280 -0.00038527  0.61117190
   0.49993138  0.50031854  0.61133369
   0.33331373  0.16666639  0.50000825
   0.33333074  0.66665880  0.50001810
   0.83335004  0.16666426  0.50001577
   0.83333735  0.66667966  0.50001249
   0.16667298  0.33333407  0.47179216
   0.16666936  0.83333624  0.47179274
   0.66666104  0.33333225  0.47179360
   0.66666374  0.83332819  0.47179270
   0.00000123  0.00000530  0.36090119
   0.00000473  0.49999719  0.36090100
   0.49999977 -0.00000279  0.36090067
   0.49999334  0.49999904  0.36090099
   0.33337948  0.16671223  0.58312301
   0.33334531  0.66664161  0.58310528
   0.83332465  0.16669441  0.58310697
   0.83326666  0.66658898  0.58311217
   0.00000497  0.00000491  0.52819515
  -0.00000390  0.49999430  0.52819718
   0.50000505  0.00000228  0.52819230
   0.49999634  0.49999025  0.52819861
   0.33332909  0.16666887  0.41688292
   0.33333136  0.66666127  0.41688194
   0.83333886  0.16666730  0.41688108
   0.83333270  0.66666838  0.41688256
   0.16678354  0.33343404  0.63908453
   0.16593520  0.83242254  0.63880424
   0.66680097  0.33370532  0.63907834
   0.66661332  0.83300118  0.63898979
   0.50111900  0.05570845  0.72407593
   0.35093426  0.05620697  0.72441070
Direct configuration=     3
   0.16666425  0.33333451  0.38863245
   0.16666724  0.83332955  0.38863128
   0.66667016  0.33333188  0.38863103
   0.66666522  0.83333463  0.38863266
  -0.00015758 -0.00006711  0.61141033
   0.00021971  0.50013890  0.61134588
   0.50031282 -0.00036214  0.61116825
   0.49993550  0.50029942  0.61132032
   0.33331489  0.16666642  0.50000776
   0.33333088  0.66665929  0.50001701
   0.83334902  0.16666443  0.50001483
   0.83333709  0.66667890  0.50001174
   0.16667262  0.33333400  0.47181796
   0.16666922  0.83333604  0.47181851
   0.66666140  0.33333229  0.47181932
   0.66666393  0.83332848  0.47181847
   0.00000116  0.00000498  0.36091378
   0.00000445  0.49999736  0.36091360
   0.49999978 -0.00000263  0.36091329
   0.49999374  0.49999910  0.36091360
   0.33337669  0.16670952  0.58313561
   0.33334457  0.66664313  0.58311895
   0.83332515  0.16669276  0.58312054
   0.83327065  0.66659367  0.58312542
   0.00000467  0.00000462  0.52817011
  -0.00000366  0.49999464  0.52817202
   0.50000474  0.00000214  0.52816744
   0.49999656  0.49999083  0.52817337
   0.33332932  0.16666875  0.41686996
   0.33333146  0.66666161  0.41686904
   0.83333851  0.16666728  0.41686823
   0.83333272  0.66666829  0.41686962
   0.16677654  0.33342798  0.63907279
   0.16597913  0.83247720  0.63880933
   0.66679293  0.33368297  0.63906697
   0.66661654  0.83302110  0.63898374
   0.50105183  0.05569930  0.72406507
   0.35098815  0.05616789  0.72437974
Direct configuration=     4
   0.16666384  0.33333478  0.38858309
   0.16666715  0.83332891  0.38858173
   0.66667071  0.33333184  0.38858144
   0.66666496  0.83333477  0.38858330
  -0.00018121 -0.00008127  0.61146737
   0.00025484  0.50016581  0.61139153
   0.50037236 -0.00042425  0.61117762
   0.49992511  0.50034771  0.61136054
   0.33330972  0.16666727  0.50000939
   0.33332831  0.66665478  0.50001866
   0.83335549  0.16666591  0.50001650
   0.83333844  0.66668121  0.50001418
   0.16667360  0.33333449  0.47173758
   0.16667052  0.83333676  0.47173824
   0.66666016  0.33333134  0.47173920
   0.66666278  0.83332804  0.47173827
   0.00000135  0.00000577  0.36087152
   0.00000516  0.49999695  0.36087130
   0.49999974 -0.00000305  0.36087095
   0.49999274  0.49999895  0.36087131
   0.33338507  0.16671573  0.58310030
   0.33335053  0.66663987  0.58307941
   0.83332239  0.16669441  0.58308214
   0.83325558  0.66658038  0.58308705
   0.00000487  0.00000584  0.52824864
  -0.00000321  0.49999350  0.52825031
   0.50000642  0.00000125  0.52824483
   0.49999514  0.49999005  0.52825186
   0.33332874  0.16666899  0.41690622
   0.33333122  0.66666079  0.41690524
   0.83333938  0.16666730  0.41690427
   0.83333272  0.66666851  0.41690576
   0.16679793  0.33344675  0.63911211
   0.16584094  0.83230314  0.63879456
   0.66681833  0.33375089  0.63910470
   0.66660599  0.83295963  0.63900507
   0.50090070  0.05573245  0.72410177
   0.35118346  0.05629580  0.72448206
Direct configuration=     5
   0.16666264  0.33333559  0.38843500
   0.16666688  0.83332701  0.38843309
   0.66667235  0.33333173  0.38843268
   0.66666420  0.83333521  0.38843524
  -0.00025208 -0.00012375  0.61163849
   0.00036026  0.50024651  0.61152849
   0.50055097 -0.00061059  0.61120573
   0.49989393  0.50049257  0.61148118
   0.33329421  0.16666982  0.50001427
   0.33332061  0.66664125  0.50002361
   0.83337492  0.16667038  0.50002152
   0.83334249  0.66668813  0.50002148
   0.16667653  0.33333594  0.47149645
   0.16667445  0.83333891  0.47149745
   0.66665646  0.33332850  0.47149885
   0.66665933  0.83332674  0.47149765
   0.00000192  0.00000812  0.36074475
   0.00000729  0.49999572  0.36074440
   0.49999962 -0.00000430  0.36074394
   0.49998976  0.49999852  0.36074443
   0.33341022  0.16673436  0.58299435
   0.33336839  0.66663008  0.58296078
   0.83331409  0.16669936  0.58296695
   0.83321039  0.66654052  0.58297192
   0.00000549  0.00000950  0.52848421
  -0.00000183  0.49999008  0.52848518
   0.50001146 -0.00000143  0.52847701
   0.49999086  0.49998770  0.52848733
   0.33332699  0.16666969  0.41701502
   0.33333051  0.66665831  0.41701385
   0.83334199  0.16666734  0.41701239
   0.83333270  0.66666917  0.41701419
   0.16686209  0.33350306  0.63923005
   0.16542637  0.83178096  0.63875025
   0.66689454  0.33395465  0.63921790
   0.66657434  0.83277520  0.63906907
   0.50044730  0.05583191  0.72421188
   0.35176938  0.05667952  0.72478900
Direct configuration=     6
   0.16666022  0.33333722  0.38813882
   0.16666633  0.83332320  0.38813579
   0.66667563  0.33333150  0.38813517
   0.66666266  0.83333608  0.38813911
  -0.00039383 -0.00020869  0.61198073
   0.00057108  0.50040791  0.61180241
   0.50090818 -0.00098326  0.61126194
   0.49983157  0.50078228  0.61172247
   0.33326320  0.16667493  0.50002404
   0.33330521  0.66661417  0.50003350
   0.83341377  0.16667931  0.50003156
   0.83335057  0.66670197  0.50003608
   0.16668238  0.33333884  0.47101418
   0.16668229  0.83334320  0.47101586
   0.66664905  0.33332282  0.47101814
   0.66665243  0.83332413  0.47101641
   0.00000307  0.00001284  0.36049119
   0.00001155  0.49999326  0.36049060
   0.49999938 -0.00000681  0.36048992
   0.49998379  0.49999765  0.36049069
   0.33346051  0.16677162  0.58278246
   0.33340411  0.66661049  0.58272351
   0.83329749  0.16670926  0.58273655
   0.83312001  0.66646080  0.58274166
   0.00000673  0.00001683  0.52895535
   0.00000093  0.49998323  0.52895492
   0.50002154 -0.00000678  0.52894137
   0.49998231  0.49998300  0.52895827
   0.33332349  0.16667109  0.41723262
   0.33332908  0.66665334  0.41723107
   0.83334722  0.16666744  0.41722864
   0.83333268  0.66667050  0.41723104
   0.16699040  0.33361568  0.63946593
   0.16459724  0.83073662  0.63866165
   0.66704696  0.33436217  0.63944429
   0.66651103  0.83240636  0.63919705
   0.49954050  0.05603083  0.72443211
   0.35294124  0.05744698  0.72540290
Direct configuration=     7
   0.16666160  0.33333629  0.38830800
   0.16666664  0.83332537  0.38830560
   0.66667376  0.33333163  0.38830511
   0.66666354  0.83333558  0.38830825
  -0.00031287 -0.00016017  0.61178525
   0.00045066  0.50031572  0.61164595
   0.50070415 -0.00077039  0.61122983
   0.49986719  0.50061680  0.61158465
   0.33328091  0.16667201  0.50001846
   0.33331401  0.66662964  0.50002785
   0.83339158  0.16667421  0.50002582
   0.83334595  0.66669406  0.50002774
   0.16667904  0.33333718  0.47128965
   0.16667781  0.83334075  0.47129094
   0.66665328  0.33332607  0.47129272
   0.66665637  0.83332562  0.47129128
   0.00000241  0.00001015  0.36063602
   0.00000912  0.49999466  0.36063557
   0.49999952 -0.00000538  0.36063501
   0.49998720  0.49999814  0.36063562
   0.33343178  0.16675033  0.58290349
   0.33338371  0.66662168  0.58285903
   0.83330697  0.16670361  0.58286815
   0.83317163  0.66650633  0.58287318
   0.00000602  0.00001265  0.52868624
  -0.00000065  0.49998714  0.52868661
   0.50001578 -0.00000372  0.52867613
   0.49998720  0.49998568  0.52868927
   0.33332549  0.16667029  0.41710833
   0.33332989  0.66665618  0.41710700
   0.83334424  0.16666739  0.41710512
   0.83333269  0.66666974  0.41710718
   0.16691711  0.33355135  0.63933120
   0.16507083  0.83133313  0.63871226
   0.66695990  0.33412940  0.63931498
   0.66654719  0.83261704  0.63912395
   0.50005845  0.05591721  0.72430632
   0.35227189  0.05700862  0.72505225
Direct configuration=     8
   0.16666153  0.33333634  0.38829887
   0.16666663  0.83332526  0.38829644
   0.66667386  0.33333162  0.38829594
   0.66666349  0.83333561  0.38829913
  -0.00031724 -0.00016279  0.61179580
   0.00045716  0.50032070  0.61165439
   0.50071516 -0.00078188  0.61123157
   0.49986527  0.50062573  0.61159209
   0.33327996  0.16667217  0.50001876
   0.33331353  0.66662880  0.50002815
   0.83339277  0.16667448  0.50002613
   0.83334620  0.66669449  0.50002819
   0.16667922  0.33333727  0.47127478
   0.16667805  0.83334088  0.47127609
   0.66665305  0.33332589  0.47127790
   0.66665616  0.83332554  0.47127645
   0.00000245  0.00001029  0.36062821
   0.00000925  0.49999459  0.36062774
   0.49999951 -0.00000545  0.36062718
   0.49998701  0.49999812  0.36062780
   0.33343333  0.16675148  0.58289696
   0.33338481  0.66662107  0.58285172
   0.83330646  0.16670391  0.58286105
   0.83316885  0.66650388  0.58286608
   0.00000606  0.00001287  0.52870076
  -0.00000056  0.49998693  0.52870109
   0.50001609 -0.00000389  0.52869044
   0.49998693  0.49998554  0.52870379
   0.33332538  0.16667033  0.41711504
   0.33332985  0.66665602  0.41711369
   0.83334440  0.16666739  0.41711178
   0.83333269  0.66666978  0.41711386
   0.16692106  0.33355482  0.63933847
   0.16504527  0.83130094  0.63870953
   0.66696460  0.33414196  0.63932195
   0.66654524  0.83260567  0.63912789
   0.50003050  0.05592334  0.72431310
   0.35230801  0.05703227  0.72507117
Direct configuration=     9
   0.16666157  0.33333631  0.38830392
   0.16666664  0.83332532  0.38830152
   0.66667380  0.33333163  0.38830101
   0.66666352  0.83333560  0.38830418
  -0.00031482 -0.00016134  0.61178996
   0.00045356  0.50031794  0.61164972
   0.50070906 -0.00077552  0.61123061
   0.49986633  0.50062078  0.61158797
   0.33328049  0.16667208  0.50001860
   0.33331380  0.66662926  0.50002798
   0.83339211  0.16667433  0.50002596
   0.83334607  0.66669425  0.50002794
   0.16667912  0.33333722  0.47128301
   0.16667792  0.83334081  0.47128431
   0.66665318  0.33332599  0.47128610
   0.66665628  0.83332558  0.47128467
   0.00000243  0.00001021  0.36063253
   0.00000918  0.49999463  0.36063208
   0.49999952 -0.00000541  0.36063152
   0.49998712  0.49999813  0.36063213
   0.33343247  0.16675085  0.58290057
   0.33338420  0.66662141  0.58285577
   0.83330674  0.16670374  0.58286498
   0.83317039  0.66650524  0.58287001
   0.00000604  0.00001275  0.52869272
  -0.00000061  0.49998705  0.52869307
   0.50001592 -0.00000380  0.52868252
   0.49998708  0.49998562  0.52869575
   0.33332544  0.16667031  0.41711132
   0.33332987  0.66665611  0.41710999
   0.83334431  0.16666739  0.41710809
   0.83333269  0.66666976  0.41711016
   0.16691887  0.33355290  0.63933444
   0.16505943  0.83131877  0.63871104
   0.66696200  0.33413501  0.63931809
   0.66654632  0.83261197  0.63912571
   0.50004598  0.05591995  0.72430934
   0.35228800  0.05701917  0.72506069
Direct configuration=    10
   0.16666200  0.33333608  0.38830419
   0.16666600  0.83332552  0.38830218
   0.66667352  0.33333232  0.38830190
   0.66666390  0.83333498  0.38830463
  -0.00029335 -0.00016754  0.61178535
   0.00041741  0.50031236  0.61165092
   0.50071953 -0.00074276  0.61122334
   0.49987750  0.50058295  0.61158707
   0.33327288  0.16667694  0.50001921
   0.33330485  0.66661542  0.50002105
   0.83340716  0.16668263  0.50002111
   0.83334775  0.66669436  0.50002883
   0.16667883  0.33333830  0.47127035
   0.16668175  0.83334155  0.47127180
   0.66665216  0.33332241  0.47127360
   0.66665378  0.83332725  0.47127236
   0.00000236  0.00000999  0.36061184
   0.00000898  0.49999473  0.36061136
   0.49999948 -0.00000534  0.36061088
   0.49998733  0.49999816  0.36061145
   0.33343095  0.16674051  0.58291259
   0.33340154  0.66662796  0.58286311
   0.83330043  0.16668692  0.58287627
   0.83315744  0.66651041  0.58287687
   0.00000362  0.00001507  0.52870693
   0.00000492  0.49998634  0.52870416
   0.50001968 -0.00000966  0.52869346
   0.49998241  0.49998900  0.52870632
   0.33332541  0.16667011  0.41709823
   0.33332980  0.66665628  0.41709724
   0.83334421  0.16666737  0.41709530
   0.83333283  0.66666978  0.41709677
   0.16692024  0.33355284  0.63935466
   0.16503281  0.83127780  0.63871535
   0.66696724  0.33414246  0.63933430
   0.66654516  0.83260486  0.63913995
   0.50003824  0.05593380  0.72432515
   0.35231124  0.05707983  0.72510994
Direct configuration=    11
   0.16666330  0.33333539  0.38830500
   0.16666409  0.83332611  0.38830417
   0.66667268  0.33333440  0.38830456
   0.66666505  0.83333315  0.38830598
  -0.00022895 -0.00018613  0.61177151
   0.00030896  0.50029561  0.61165452
   0.50075095 -0.00064447  0.61120154
   0.49991100  0.50046944  0.61158437
   0.33325005  0.16669151  0.50002106
   0.33327801  0.66657391  0.50000025
   0.83345231  0.16670753  0.50000657
   0.83335281  0.66669469  0.50003152
   0.16667795  0.33334152  0.47123236
   0.16669322  0.83334377  0.47123425
   0.66664912  0.33331169  0.47123607
   0.66664630  0.83333224  0.47123543
   0.00000214  0.00000933  0.36054977
   0.00000840  0.49999502  0.36054919
   0.49999938 -0.00000514  0.36054895
   0.49998798  0.49999826  0.36054941
   0.33342637  0.16670949  0.58294863
   0.33345357  0.66664763  0.58288514
   0.83328148  0.16663643  0.58291013
   0.83311860  0.66652593  0.58289745
  -0.00000363  0.00002202  0.52874956
   0.00002150  0.49998421  0.52873742
   0.50003094 -0.00002724  0.52872629
   0.49996842  0.49999914  0.52873805
   0.33332532  0.16666952  0.41705894
   0.33332958  0.66665677  0.41705899
   0.83334392  0.16666733  0.41705692
   0.83333324  0.66666983  0.41705659
   0.16692435  0.33355266  0.63941531
   0.16495297  0.83115490  0.63872827
   0.66698298  0.33416484  0.63938292
   0.66654169  0.83258352  0.63918266
   0.50001501  0.05597537  0.72437255
   0.35238094  0.05726181  0.72525770
Direct configuration=    12
   0.16666590  0.33333400  0.38830662
   0.16666027  0.83332729  0.38830814
   0.66667099  0.33333856  0.38830988
   0.66666734  0.83332948  0.38830867
  -0.00010014 -0.00022330  0.61174385
   0.00009205  0.50026212  0.61166172
   0.50081379 -0.00044791  0.61115795
   0.49997800  0.50024243  0.61157896
   0.33320440  0.16672064  0.50002475
   0.33322434  0.66649087  0.49995864
   0.83354260  0.16675734  0.49997747
   0.83336294  0.66669535  0.50003688
   0.16667620  0.33334798  0.47115637
   0.16671617  0.83334820  0.47115915
   0.66664302  0.33329025  0.47116102
   0.66663133  0.83334223  0.47116158
   0.00000171  0.00000801  0.36042562
   0.00000723  0.49999559  0.36042487
   0.49999918 -0.00000474  0.36042510
   0.49998927  0.49999845  0.36042533
   0.33341721  0.16664745  0.58302071
   0.33355762  0.66668697  0.58292920
   0.83324359  0.16653546  0.58297785
   0.83304092  0.66655697  0.58293861
  -0.00001814  0.00003594  0.52883481
   0.00005465  0.49997995  0.52880395
   0.50005347 -0.00006240  0.52879195
   0.49994043  0.50001943  0.52880151
   0.33332513  0.16666835  0.41698038
   0.33332914  0.66665777  0.41698250
   0.83334335  0.16666725  0.41698015
   0.83333406  0.66666994  0.41697624
   0.16693256  0.33355229  0.63953662
   0.16479328  0.83090909  0.63875412
   0.66701446  0.33420958  0.63948016
   0.66653475  0.83254086  0.63926808
   0.49996856  0.05605851  0.72446735
   0.35252034  0.05762576  0.72555322
Direct configuration=    13
   0.16667110  0.33333122  0.38830987
   0.16665262  0.83332966  0.38831609
   0.66666760  0.33334687  0.38832052
   0.66667192  0.83332213  0.38831406
   0.00015748 -0.00029766  0.61168853
  -0.00034176  0.50019513  0.61167613
   0.50093946 -0.00005478  0.61107076
   0.50011201  0.49978841  0.61156816
   0.33311311  0.16677892  0.50003214
   0.33311700  0.66632480  0.49987543
   0.83372319  0.16685694  0.49991929
   0.83338319  0.66669667  0.50004760
   0.16667271  0.33336088  0.47100440
   0.16676207  0.83335707  0.47100895
   0.66663083  0.33324737  0.47101092
   0.66660140  0.83336221  0.47101387
   0.00000084  0.00000537  0.36017732
   0.00000490  0.49999675  0.36017622
   0.49999878 -0.00000393  0.36017739
   0.49999185  0.49999884  0.36017715
   0.33339890  0.16652337  0.58316487
   0.33376573  0.66676564  0.58301732
   0.83316781  0.16633351  0.58311329
   0.83288556  0.66661905  0.58302092
  -0.00004716  0.00006377  0.52900532
   0.00012096  0.49997142  0.52893701
   0.50009852 -0.00013273  0.52892327
   0.49988446  0.50005999  0.52892843
   0.33332477  0.16666599  0.41682324
   0.33332827  0.66665976  0.41682952
   0.83334221  0.16666708  0.41682662
   0.83333571  0.66667016  0.41681555
   0.16694899  0.33355156  0.63977923
   0.16447390  0.83041747  0.63880581
   0.66707742  0.33429908  0.63967464
   0.66652086  0.83245553  0.63943893
   0.49987566  0.05622480  0.72465696
   0.35279913  0.05835367  0.72614425
Direct configuration=    14
   0.16667455  0.33332493  0.38825427
   0.16664808  0.83333568  0.38826789
   0.66666238  0.33335033  0.38827399
   0.66667777  0.83331905  0.38826559
   0.00014714 -0.00031639  0.61172322
  -0.00035182  0.50017071  0.61171420
   0.50096980 -0.00008535  0.61109685
   0.50009579  0.49976941  0.61161361
   0.33312295  0.16678053  0.50002703
   0.33311749  0.66632227  0.49987506
   0.83372288  0.16686253  0.49991106
   0.83337478  0.66668595  0.50004592
   0.16666762  0.33334573  0.47100163
   0.16676513  0.83337077  0.47101020
   0.66662390  0.33323805  0.47101341
   0.66661162  0.83337152  0.47101245
   0.00000101  0.00000761  0.36011201
   0.00000653  0.49999540  0.36011131
   0.49999922 -0.00000486  0.36011286
   0.49998935  0.49999876  0.36011203
   0.33340973  0.16648328  0.58320232
   0.33381865  0.66677372  0.58303679
   0.83314909  0.16629288  0.58314787
   0.83282638  0.66660884  0.58303549
  -0.00002981  0.00008331  0.52900215
   0.00011505  0.49995697  0.52892641
   0.50011592 -0.00011718  0.52890518
   0.49986328  0.50002693  0.52891135
   0.33331974  0.16666913  0.41677818
   0.33332338  0.66665173  0.41677918
   0.83335082  0.16667129  0.41677904
   0.83333663  0.66667064  0.41676854
   0.16694673  0.33352416  0.63983954
   0.16440357  0.83031566  0.63882587
   0.66708675  0.33431066  0.63972604
   0.66653961  0.83244358  0.63948115
   0.49996099  0.05627815  0.72472494
   0.35276931  0.05862563  0.72636540
Direct configuration=    15
   0.16668489  0.33330605  0.38808747
   0.16663444  0.83335376  0.38812326
   0.66664671  0.33336070  0.38813439
   0.66669532  0.83330980  0.38812018
   0.00011611 -0.00037258  0.61182728
  -0.00038200  0.50009745  0.61182840
   0.50106080 -0.00017707  0.61117512
   0.50004714  0.49971241  0.61174997
   0.33315248  0.16678536  0.50001171
   0.33311895  0.66631469  0.49987397
   0.83372195  0.16687928  0.49988638
   0.83334954  0.66665379  0.50004086
   0.16665235  0.33330030  0.47099333
   0.16677432  0.83341184  0.47101393
   0.66660311  0.33321009  0.47102086
   0.66664230  0.83339945  0.47100821
   0.00000151  0.00001436  0.35991607
   0.00001145  0.49999134  0.35991659
   0.50000053 -0.00000765  0.35991925
   0.49998185  0.49999850  0.35991664
   0.33344222  0.16636301  0.58331469
   0.33397741  0.66679799  0.58309521
   0.83309296  0.16617101  0.58325160
   0.83264887  0.66657819  0.58307918
   0.00002224  0.00014191  0.52899264
   0.00009731  0.49991360  0.52889459
   0.50016811 -0.00007054  0.52885090
   0.49979974  0.49992773  0.52886010
   0.33330467  0.16667853  0.41664297
   0.33330871  0.66662765  0.41662815
   0.83337667  0.16668393  0.41663633
   0.83333940  0.66667206  0.41662751
   0.16693997  0.33344196  0.64002047
   0.16419258  0.83001024  0.63888603
   0.66711474  0.33434543  0.63988022
   0.66659585  0.83240774  0.63960784
   0.50021698  0.05643819  0.72492886
   0.35267983  0.05944150  0.72702884
Direct configuration=    16
   0.16670558  0.33326828  0.38775387
   0.16660717  0.83338992  0.38783402
   0.66661537  0.33338144  0.38785519
   0.66673041  0.83329131  0.38782935
   0.00005407 -0.00048498  0.61203540
  -0.00044238  0.49995092  0.61205681
   0.50124281 -0.00036051  0.61133165
   0.49994984  0.49959840  0.61202269
   0.33321154  0.16679503  0.49998107
   0.33312187  0.66629953  0.49987178
   0.83372008  0.16691279  0.49983702
   0.83329907  0.66658946  0.50003074
   0.16662182  0.33320944  0.47097671
   0.16679269  0.83349399  0.47102141
   0.66656153  0.33315415  0.47103578
   0.66670367  0.83345530  0.47099972
   0.00000251  0.00002784  0.35952420
   0.00002127  0.49998322  0.35952715
   0.50000314 -0.00001322  0.35953204
   0.49996684  0.49999798  0.35952587
   0.33350720  0.16612248  0.58353942
   0.33429492  0.66684651  0.58321205
   0.83298068  0.16592725  0.58345906
   0.83229383  0.66651691  0.58316657
   0.00012634  0.00025913  0.52897363
   0.00006183  0.49982687  0.52883096
   0.50027249  0.00002275  0.52874235
   0.49967265  0.49972934  0.52875761
   0.33327453  0.16669735  0.41637256
   0.33327938  0.66657949  0.41632609
   0.83342835  0.16670921  0.41635090
   0.83334493  0.66667491  0.41634546
   0.16692645  0.33327756  0.64038233
   0.16377059  0.82939940  0.63900635
   0.66717073  0.33441495  0.64018858
   0.66670833  0.83233606  0.63986120
   0.50072896  0.05675829  0.72533669
   0.35250088  0.06107324  0.72835572
Direct configuration=    17
   0.16669608  0.33328562  0.38790704
   0.16661969  0.83337332  0.38796682
   0.66662976  0.33337191  0.38798338
   0.66671430  0.83329980  0.38796287
   0.00008255 -0.00043337  0.61193985
  -0.00041466  0.50001820  0.61195194
   0.50115924 -0.00027628  0.61125978
   0.49999451  0.49965074  0.61189747
   0.33318443  0.16679059  0.49999514
   0.33312053  0.66630649  0.49987279
   0.83372094  0.16689740  0.49985968
   0.83332224  0.66661900  0.50003538
   0.16663584  0.33325116  0.47098434
   0.16678425  0.83345627  0.47101798
   0.66658062  0.33317983  0.47102893
   0.66667549  0.83342966  0.47100362
   0.00000205  0.00002165  0.35970412
   0.00001676  0.49998695  0.35970595
   0.50000194 -0.00001066  0.35970982
   0.49997373  0.49999822  0.35970528
   0.33347737  0.16623292  0.58343624
   0.33414914  0.66682423  0.58315841
   0.83303223  0.16603917  0.58336381
   0.83245684  0.66654505  0.58312645
   0.00007855  0.00020531  0.52898236
   0.00007812  0.49986669  0.52886018
   0.50022457 -0.00002008  0.52879219
   0.49973100  0.49982043  0.52880467
   0.33328837  0.16668871  0.41649671
   0.33329285  0.66660160  0.41646478
   0.83340462  0.16669760  0.41648195
   0.83334239  0.66667361  0.41647496
   0.16693266  0.33335304  0.64021619
   0.16396434  0.82967985  0.63895110
   0.66714503  0.33438303  0.64004700
   0.66665669  0.83236897  0.63974487
   0.50049390  0.05661132  0.72514944
   0.35258304  0.06032406  0.72774651
Direct configuration=    18
   0.16669681  0.33328440  0.38789401
   0.16661885  0.83337454  0.38795545
   0.66662866  0.33337255  0.38797234
   0.66671539  0.83329916  0.38795145
   0.00007908 -0.00043766  0.61194805
  -0.00041521  0.50001270  0.61196060
   0.50116549 -0.00028524  0.61126618
   0.49999011  0.49964799  0.61190792
   0.33318680  0.16679070  0.49999380
   0.33312116  0.66630639  0.49987276
   0.83372039  0.16689812  0.49985782
   0.83332016  0.66661673  0.50003479
   0.16663460  0.33324765  0.47098415
   0.16678463  0.83345921  0.47101874
   0.66657925  0.33317799  0.47102992
   0.66667803  0.83343165  0.47100375
   0.00000211  0.00002213  0.35968974
   0.00001705  0.49998663  0.35969169
   0.50000205 -0.00001079  0.35969567
   0.49997322  0.49999815  0.35969095
   0.33348018  0.16622431  0.58344442
   0.33416032  0.66682540  0.58316268
   0.83302829  0.16603089  0.58337132
   0.83244362  0.66654191  0.58312960
   0.00008274  0.00020977  0.52898102
   0.00007646  0.49986329  0.52885738
   0.50022849 -0.00001621  0.52878764
   0.49972611  0.49981230  0.52880036
   0.33328730  0.16668946  0.41648681
   0.33329175  0.66659977  0.41645370
   0.83340654  0.16669858  0.41647148
   0.83334255  0.66667364  0.41646467
   0.16693207  0.33334680  0.64022928
   0.16394956  0.82965823  0.63895584
   0.66714710  0.33438529  0.64005832
   0.66666101  0.83236641  0.63975418
   0.50047431  0.05662431  0.72516542
   0.35261498  0.06038485  0.72779611
Direct configuration=    19
   0.16669901  0.33328074  0.38785493
   0.16661634  0.83337819  0.38792133
   0.66662536  0.33337445  0.38793921
   0.66671866  0.83329725  0.38791716
   0.00006864 -0.00045053  0.61197265
  -0.00041686  0.49999619  0.61198655
   0.50118423 -0.00031209  0.61128540
   0.49997689  0.49963974  0.61193925
   0.33319392  0.16679101  0.49998980
   0.33312306  0.66630609  0.49987267
   0.83371874  0.16690028  0.49985225
   0.83331389  0.66660992  0.50003302
   0.16663089  0.33323713  0.47098356
   0.16678577  0.83346804  0.47102101
   0.66657513  0.33317246  0.47103288
   0.66668565  0.83343765  0.47100414
   0.00000227  0.00002357  0.35964662
   0.00001790  0.49998568  0.35964891
   0.50000236 -0.00001118  0.35965321
   0.49997167  0.49999793  0.35964797
   0.33348861  0.16619851  0.58346896
   0.33419388  0.66682890  0.58317551
   0.83301645  0.16600606  0.58339386
   0.83240397  0.66653249  0.58313904
   0.00009530  0.00022315  0.52897701
   0.00007148  0.49985308  0.52884898
   0.50024026 -0.00000460  0.52877397
   0.49971144  0.49978794  0.52878744
   0.33328408  0.16669171  0.41645710
   0.33328847  0.66659429  0.41642049
   0.83341230  0.16670151  0.41644007
   0.83334303  0.66667375  0.41643379
   0.16693029  0.33332810  0.64026857
   0.16390523  0.82959335  0.63897004
   0.66715334  0.33439208  0.64009228
   0.66667398  0.83235872  0.63978211
   0.50041555  0.05666327  0.72521335
   0.35271081  0.06056720  0.72794489
Direct configuration=    20
   0.16670340  0.33327342  0.38777678
   0.16661133  0.83338550  0.38785308
   0.66661876  0.33337825  0.38787297
   0.66672521  0.83329344  0.38784859
   0.00004777 -0.00047628  0.61202185
  -0.00042016  0.49996317  0.61203846
   0.50122171 -0.00036581  0.61132382
   0.49995045  0.49962323  0.61200192
   0.33320816  0.16679164  0.49998180
   0.33312686  0.66630548  0.49987251
   0.83371545  0.16690460  0.49984111
   0.83330136  0.66659631  0.50002947
   0.16662347  0.33321608  0.47098240
   0.16678805  0.83348569  0.47102555
   0.66656688  0.33316139  0.47103880
   0.66670089  0.83344963  0.47100493
   0.00000260  0.00002646  0.35956037
   0.00001961  0.49998379  0.35956334
   0.50000299 -0.00001197  0.35956830
   0.49996858  0.49999749  0.35956201
   0.33350547  0.16614689  0.58351805
   0.33426099  0.66683589  0.58320116
   0.83299279  0.16595640  0.58343895
   0.83232466  0.66651367  0.58315793
   0.00012043  0.00024991  0.52896898
   0.00006152  0.49983265  0.52883219
   0.50026379  0.00001861  0.52874663
   0.49968211  0.49973921  0.52876159
   0.33327766  0.16669622  0.41639768
   0.33328190  0.66658332  0.41635407
   0.83342382  0.16670736  0.41637724
   0.83334399  0.66667397  0.41637203
   0.16692673  0.33329070  0.64034715
   0.16381658  0.82946358  0.63899845
   0.66716582  0.33440565  0.64016019
   0.66669991  0.83234335  0.63983797
   0.50029803  0.05674118  0.72530921
   0.35290246  0.06093191  0.72824246
Direct configuration=    21
   0.16671217  0.33325877  0.38762047
   0.16660129  0.83340012  0.38771660
   0.66660556  0.33338586  0.38774047
   0.66673830  0.83328580  0.38771145
   0.00000603 -0.00052776  0.61212024
  -0.00042676  0.49989714  0.61214229
   0.50129667 -0.00047323  0.61140067
   0.49989758  0.49959022  0.61212726