CeO2                                    
           1
     7.707464    0.000000    0.000000
    -3.853732    6.674860    0.000000
     0.000000    0.000000   28.319031
   Ce   O    C    O 
  12  24   1   1
Direct configuration=     1
   0.16666700  0.33333300  0.38888900
   0.16666700  0.83333300  0.38888900
   0.66666700  0.33333300  0.38888900
   0.66666700  0.83333300  0.38888900
   0.00000000  0.00000000  0.61111100
   0.00000000  0.50000000  0.61111100
   0.50000000  0.00000000  0.61111100
   0.50000000  0.50000000  0.61111100
   0.33333300  0.16666700  0.50000000
   0.33333300  0.66666700  0.50000000
   0.83333300  0.16666700  0.50000000
   0.83333300  0.66666700  0.50000000
   0.16666700  0.33333300  0.47222200
   0.16666700  0.83333300  0.47222200
   0.66666700  0.33333300  0.47222200
   0.66666700  0.83333300  0.47222200
   0.00000000  0.00000000  0.36111100
   0.00000000  0.50000000  0.36111100
   0.50000000  0.00000000  0.36111100
   0.50000000  0.50000000  0.36111100
   0.33333300  0.16666700  0.58333300
   0.33333300  0.66666700  0.58333300
   0.83333300  0.16666700  0.58333300
   0.83333300  0.66666700  0.58333300
   0.00000000  0.00000000  0.52777800
   0.00000000  0.50000000  0.52777800
   0.50000000  0.00000000  0.52777800
   0.50000000  0.50000000  0.52777800
   0.33333300  0.16666700  0.41666700
   0.33333300  0.66666700  0.41666700
   0.83333300  0.16666700  0.41666700
   0.83333300  0.66666700  0.41666700
   0.16666700  0.33333300  0.63888900
   0.16666700  0.83333300  0.63888900
   0.66666700  0.33333300  0.63888900
   0.66666700  0.83333300  0.63888900
   0.22222200  0.16666700  0.72389500
   0.37039000  0.16666700  0.72389500
Direct configuration=     2
   0.16666540  0.33333212  0.38860773
   0.16666416  0.83333229  0.38860785
   0.66666812  0.33333529  0.38860807
   0.66666955  0.83333304  0.38860789
  -0.00068556 -0.00046790  0.61136512
  -0.00033271  0.50002525  0.61139573
   0.50028000  0.00009595  0.61143447
   0.50065099  0.50048389  0.61124694
   0.33333862  0.16666434  0.49999092
   0.33332942  0.66667084  0.50000023
   0.83332910  0.16667243  0.50000393
   0.83333633  0.66666145  0.50000789
   0.16667457  0.33333010  0.47180006
   0.16666662  0.83334080  0.47179989
   0.66665847  0.33333581  0.47179912
   0.66666739  0.83332728  0.47180037
   0.00000283  0.00000129  0.36090790
  -0.00000296  0.49999931  0.36090805
   0.49999903  0.00000400  0.36090775
   0.50000015  0.49999657  0.36090792
   0.33327428  0.16668711  0.58313761
   0.33332379  0.66661405  0.58311908
   0.83341325  0.16665895  0.58311085
   0.83332845  0.66670168  0.58310529
   0.00001076  0.00000471  0.52820184
   0.00000534  0.50000346  0.52819632
   0.49998958 -0.00000023  0.52819743
   0.49999109  0.49999122  0.52820938
   0.33333443  0.16666821  0.41689138
   0.33332980  0.66666481  0.41689008
   0.83333469  0.16667120  0.41688920
   0.83333357  0.66666383  0.41689039
   0.16716255  0.33392194  0.63894228
   0.16643716  0.83306350  0.63902007
   0.66701853  0.33368806  0.63891753
   0.66655744  0.83316651  0.63904400
   0.21897197  0.16535212  0.72422156
   0.37321579  0.16733870  0.72409787
Direct configuration=     3
   0.16666645  0.33333270  0.38879288
   0.16666603  0.83333276  0.38879292
   0.66666738  0.33333378  0.38879300
   0.66666787  0.83333301  0.38879294
  -0.00023427 -0.00015989  0.61119784
  -0.00011369  0.50000863  0.61120830
   0.50009568  0.00003279  0.61122154
   0.50022245  0.50016535  0.61115745
   0.33333492  0.16666609  0.49999690
   0.33333178  0.66666831  0.50000008
   0.83333167  0.16666885  0.50000134
   0.83333414  0.66666510  0.50000270
   0.16666959  0.33333201  0.47207782
   0.16666687  0.83333566  0.47207776
   0.66666409  0.33333396  0.47207749
   0.66666713  0.83333104  0.47207792
   0.00000097  0.00000044  0.36104160
  -0.00000101  0.49999976  0.36104165
   0.49999967  0.00000137  0.36104155
   0.50000005  0.49999883  0.36104160
   0.33331293  0.16667387  0.58326623
   0.33332985  0.66664891  0.58325990
   0.83336042  0.16666425  0.58325709
   0.83333144  0.66667885  0.58325519
   0.00000368  0.00000161  0.52792283
   0.00000183  0.50000118  0.52792095
   0.49999644 -0.00000008  0.52792133
   0.49999696  0.49999700  0.52792541
   0.33333349  0.16666741  0.41674368
   0.33333191  0.66666625  0.41674323
   0.83333358  0.16666844  0.41674293
   0.83333320  0.66666592  0.41674334
   0.16683634  0.33353425  0.63890721
   0.16658846  0.83324091  0.63893379
   0.66678712  0.33345433  0.63889875
   0.66662956  0.83327611  0.63894197
   0.22111141  0.16621768  0.72400659
   0.37135562  0.16689653  0.72396432
Direct configuration=     4
   0.16666571  0.33333257  0.38868887
   0.16666502  0.83333225  0.38868893
   0.66666772  0.33333442  0.38868909
   0.66666830  0.83333293  0.38868908
  -0.00047985 -0.00032707  0.61129064
  -0.00022864  0.50002247  0.61131374
   0.50018928  0.00006867  0.61134111
   0.50045542  0.50033781  0.61120637
   0.33333573  0.16666246  0.49999485
   0.33332792  0.66667046  0.50000065
   0.83333051  0.16667191  0.50000213
   0.83333839  0.66666361  0.50000355
   0.16667197  0.33333089  0.47191528
   0.16666602  0.83333800  0.47191504
   0.66666134  0.33333530  0.47191456
   0.66666744  0.83332880  0.47191530
   0.00000148  0.00000061  0.36095966
  -0.00000195  0.49999950  0.36095971
   0.49999932  0.00000230  0.36095959
   0.50000002  0.49999793  0.36095968
   0.33328953  0.16667753  0.58319698
   0.33332862  0.66663450  0.58318280
   0.83338934  0.16665800  0.58317808
   0.83333152  0.66669613  0.58317267
   0.00000518  0.00000143  0.52808645
   0.00000202  0.50000215  0.52808260
   0.49999385  0.00000032  0.52808346
   0.49999602  0.49999522  0.52809091
   0.33333377  0.16666763  0.41682340
   0.33333104  0.66666563  0.41682254
   0.83333382  0.16666934  0.41682202
   0.83333318  0.66666500  0.41682284
   0.16702485  0.33375769  0.63893234
   0.16649326  0.83313244  0.63898687
   0.66693236  0.33359485  0.63891148
   0.66659125  0.83321591  0.63900564
   0.22097094  0.16570070  0.72413478
   0.37133030  0.16716371  0.72404633
Direct configuration=     5
   0.16666396  0.33333227  0.38844469
   0.16666264  0.83333105  0.38844479
   0.66666852  0.33333591  0.38844515
   0.66666932  0.83333273  0.38844524
  -0.00105641 -0.00071955  0.61150850
  -0.00049851  0.50005497  0.61156129
   0.50040903  0.00015290  0.61162182
   0.50100234  0.50074268  0.61132122
   0.33333763  0.16665393  0.49999004
   0.33331887  0.66667550  0.50000199
   0.83332778  0.16667907  0.50000399
   0.83334836  0.66666010  0.50000554
   0.16667757  0.33332826  0.47153368
   0.16666402  0.83334347  0.47153304
   0.66665491  0.33333843  0.47153203
   0.66666816  0.83332354  0.47153350
   0.00000268  0.00000101  0.36076728
  -0.00000417  0.49999887  0.36076735
   0.49999851  0.00000450  0.36076717
   0.49999996  0.49999581  0.36076735
   0.33323458  0.16668611  0.58303441
   0.33332571  0.66660069  0.58300180
   0.83345723  0.16664332  0.58299259
   0.83333168  0.66673671  0.58297894
   0.00000871  0.00000102  0.52847058
   0.00000249  0.50000442  0.52846210
   0.49998778  0.00000125  0.52846411
   0.49999383  0.49999105  0.52847944
   0.33333444  0.16666812  0.41701056
   0.33332900  0.66666418  0.41700874
   0.83333438  0.16667146  0.41700771
   0.83333314  0.66666286  0.41700949
   0.16746743  0.33428227  0.63899134
   0.16626977  0.83287778  0.63911149
   0.66727332  0.33392474  0.63894137
   0.66650130  0.83307459  0.63915511
   0.22064117  0.16448699  0.72443572
   0.37127085  0.16779096  0.72423884
Direct configuration=     6
   0.16666310  0.33333213  0.38832372
   0.16666146  0.83333046  0.38832384
   0.66666892  0.33333665  0.38832430
   0.66666982  0.83333263  0.38832444
  -0.00134203 -0.00091397  0.61161642
  -0.00063220  0.50007107  0.61168392
   0.50051789  0.00019462  0.61176089
   0.50127328  0.50094325  0.61137811
   0.33333857  0.16664970  0.49998766
   0.33331439  0.66667800  0.50000265
   0.83332643  0.16668262  0.50000490
   0.83335331  0.66665836  0.50000653
   0.16668034  0.33332695  0.47134465
   0.16666303  0.83334618  0.47134381
   0.66665172  0.33333998  0.47134254
   0.66666852  0.83332094  0.47134437
   0.00000328  0.00000121  0.36067198
  -0.00000526  0.49999856  0.36067206
   0.49999810  0.00000559  0.36067185
   0.49999993  0.49999477  0.36067207
   0.33320735  0.16669037  0.58295387
   0.33332427  0.66658394  0.58291213
   0.83349086  0.16663605  0.58290071
   0.83333177  0.66675681  0.58288296
   0.00001046  0.00000081  0.52866087
   0.00000272  0.50000555  0.52865010
   0.49998477  0.00000171  0.52865267
   0.49999275  0.49998898  0.52867192
   0.33333477  0.16666837  0.41710328
   0.33332799  0.66666346  0.41710098
   0.83333466  0.16667252  0.41709969
   0.83333312  0.66666180  0.41710195
   0.16768667  0.33454214  0.63902056
   0.16615905  0.83275162  0.63917323
   0.66744223  0.33408816  0.63895618
   0.66645674  0.83300458  0.63922916
   0.22047780  0.16388574  0.72458480
   0.37124140  0.16810169  0.72433421
Direct configuration=     7
   0.16666314  0.33333335  0.38832975
   0.16666213  0.83332992  0.38832965
   0.66666941  0.33333654  0.38832956
   0.66666886  0.83333284  0.38833042
  -0.00120560 -0.00077669  0.61160823
  -0.00049212  0.50008672  0.61168026
   0.50041956  0.00017249  0.61173847
   0.50110676  0.50085110  0.61135807
   0.33333092  0.16662953  0.50000184
   0.33330274  0.66668945  0.50001134
   0.83332488  0.16668578  0.50000337
   0.83337450  0.66666523  0.49999089
   0.16668057  0.33332582  0.47130825
   0.16665711  0.83334482  0.47130692
   0.66665389  0.33334578  0.47130672
   0.66667221  0.83331850  0.47130898
   0.00000297  0.00000092  0.36061540
  -0.00000523  0.49999896  0.36061532
   0.49999808  0.00000546  0.36061532
   0.50000025  0.49999531  0.36061550
   0.33320680  0.16664962  0.58299139
   0.33337779  0.66666609  0.58293850
   0.83345438  0.16657960  0.58293965
   0.83333904  0.66680709  0.58290735
  -0.00001681 -0.00002251  0.52869448
  -0.00002027  0.50000486  0.52868176
   0.50000197  0.00001110  0.52869165
   0.50002465  0.50000706  0.52869630
   0.33333501  0.16666812  0.41706235
   0.33332838  0.66666432  0.41706009
   0.83333393  0.16667218  0.41705944
   0.83333324  0.66666210  0.41706204
   0.16772379  0.33459997  0.63905257
   0.16610853  0.83271556  0.63922022
   0.66751990  0.33413071  0.63898805
   0.66647200  0.83302465  0.63928453
   0.22038986  0.16354035  0.72466263
   0.37121477  0.16828132  0.72439276
Direct configuration=     8
   0.16666322  0.33333577  0.38834162
   0.16666345  0.83332886  0.38834109
   0.66667038  0.33333631  0.38833991
   0.66666696  0.83333324  0.38834218
  -0.00093694 -0.00050633  0.61159209
  -0.00021626  0.50011753  0.61167305
   0.50022593  0.00012889  0.61169433
   0.50077884  0.50066963  0.61131861
   0.33331586  0.16658980  0.50002977
   0.33327979  0.66671199  0.50002844
   0.83332182  0.16669199  0.50000034
   0.83341625  0.66667877  0.49996009
   0.16668100  0.33332358  0.47123658
   0.16664546  0.83334214  0.47123426
   0.66665817  0.33335718  0.47123619
   0.66667949  0.83331369  0.47123929
   0.00000236  0.00000035  0.36050398
  -0.00000516  0.49999977  0.36050360
   0.49999804  0.00000519  0.36050400
   0.50000088  0.49999637  0.36050410
   0.33320570  0.16656937  0.58306528
   0.33348317  0.66682787  0.58299043
   0.83338255  0.16646843  0.58301634
   0.83335336  0.66690611  0.58295538
  -0.00007051 -0.00006843  0.52876065
  -0.00006555  0.50000351  0.52874410
   0.50003585  0.00002961  0.52876842
   0.50008746  0.50004268  0.52874431
   0.33333548  0.16666763  0.41698175
   0.33332915  0.66666601  0.41697957
   0.83333249  0.16667151  0.41698016
   0.83333347  0.66666269  0.41698343
   0.16779688  0.33471385  0.63911559
   0.16600904  0.83264453  0.63931274
   0.66767286  0.33421452  0.63905080
   0.66650204  0.83306416  0.63939357
   0.22021668  0.16286018  0.72481589
   0.37116233  0.16863506  0.72450806
Direct configuration=     9
   0.16666338  0.33334060  0.38836537
   0.16666610  0.83332674  0.38836396
   0.66667233  0.33333585  0.38836060
   0.66666317  0.83333403  0.38836570
  -0.00039962  0.00003438  0.61155981
   0.00033546  0.50017915  0.61165862
   0.49983867  0.00004170  0.61160603
   0.50012301  0.50030669  0.61123968
   0.33328572  0.16651035  0.50008562
   0.33323388  0.66675709  0.50006265
   0.83331570  0.16670443  0.49999429
   0.83349973  0.66670583  0.49989848
   0.16668188  0.33331912  0.47109323
   0.16662215  0.83333677  0.47108896
   0.66666672  0.33338000  0.47109512
   0.66669404  0.83330408  0.47109991
   0.00000113 -0.00000081  0.36028115
  -0.00000502  0.50000138  0.36028016
   0.49999795  0.00000466  0.36028136
   0.50000215  0.49999850  0.36028130
   0.33320351  0.16640887  0.58321305
   0.33369395  0.66715143  0.58309429
   0.83323889  0.16624610  0.58316971
   0.83338200  0.66710416  0.58305143
  -0.00017792 -0.00016027  0.52889300
  -0.00015610  0.50000081  0.52886878
   0.50010360  0.00006661  0.52892196
   0.50021309  0.50011391  0.52884035
   0.33333643  0.16666664  0.41682056
   0.33333069  0.66666939  0.41681852
   0.83332961  0.16667017  0.41682161
   0.83333394  0.66666386  0.41682622
   0.16794306  0.33494161  0.63924164
   0.16581006  0.83250248  0.63949780
   0.66797877  0.33438212  0.63917632
   0.66656214  0.83314319  0.63961165
   0.21987032  0.16149984  0.72512242
   0.37105745  0.16934253  0.72473866
Direct configuration=    10
   0.16666331  0.33333837  0.38835439
   0.16666487  0.83332772  0.38835338
   0.66667143  0.33333606  0.38835103
   0.66666493  0.83333367  0.38835482
  -0.00064807 -0.00021564  0.61157473
   0.00008035  0.50015066  0.61166529
   0.50001774  0.00008202  0.61164686
   0.50042626  0.50047451  0.61127617
   0.33329966  0.16654709  0.50005980
   0.33325511  0.66673624  0.50004683
   0.83331853  0.16669868  0.49999709
   0.83346113  0.66669332  0.49992697
   0.16668147  0.33332118  0.47115952
   0.16663293  0.83333925  0.47115615
   0.66666277  0.33336945  0.47116035
   0.66668731  0.83330853  0.47116436
   0.00000170 -0.00000027  0.36038419
  -0.00000508  0.50000064  0.36038348
   0.49999799  0.00000491  0.36038431
   0.50000156  0.49999752  0.36038432
   0.33320452  0.16648308  0.58314472
   0.33359649  0.66700182  0.58304627
   0.83330532  0.16634890  0.58309879
   0.83336875  0.66701258  0.58300702
  -0.00012825 -0.00011781  0.52883181
  -0.00011423  0.50000206  0.52881113
   0.50007227  0.00004950  0.52885096
   0.50015500  0.50008097  0.52879594
   0.33333599  0.16666710  0.41689509
   0.33332998  0.66666783  0.41689299
   0.83333094  0.16667079  0.41689492
   0.83333372  0.66666332  0.41689891
   0.16787547  0.33483629  0.63918336
   0.16590206  0.83256817  0.63941223
   0.66783732  0.33430462  0.63911828
   0.66653435  0.83310665  0.63951081
   0.22003047  0.16212885  0.72498069
   0.37110594  0.16901540  0.72463203
Direct configuration=    11
   0.16666419  0.33333896  0.38835235
   0.16666666  0.83332857  0.38835076
   0.66667017  0.33333477  0.38834839
   0.66666350  0.83333371  0.38835258
  -0.00059310 -0.00015870  0.61157502
   0.00014044  0.50015976  0.61166680
   0.49997833  0.00007335  0.61164074
   0.50036032  0.50044043  0.61127117
   0.33329516  0.16653792  0.50006504
   0.33324952  0.66674096  0.50004941
   0.83331882  0.16670021  0.49999617
   0.83347108  0.66669704  0.49991999
   0.16668201  0.33332061  0.47114677
   0.16663224  0.83333989  0.47114286
   0.66666234  0.33337018  0.47114738
   0.66668789  0.83330806  0.47115152
   0.00000119 -0.00000081  0.36035575
  -0.00000523  0.50000090  0.36035495
   0.49999806  0.00000472  0.36035584
   0.50000204  0.49999804  0.36035586
   0.33320266  0.16646190  0.58316366
   0.33362319  0.66704424  0.58305907
   0.83328916  0.16632104  0.58311839
   0.83337367  0.66704000  0.58301903
  -0.00013768 -0.00012508  0.52884340
  -0.00012308  0.50000093  0.52882222
   0.50007924  0.00005492  0.52886529
   0.50016606  0.50008642  0.52880292
   0.33333604  0.16666651  0.41687464
   0.33333001  0.66666853  0.41687243
   0.83333039  0.16667056  0.41687444
   0.83333412  0.66666355  0.41687817
   0.16789525  0.33486607  0.63919971
   0.16587989  0.83255248  0.63943647
   0.66787432  0.33432397  0.63913390
   0.66654023  0.83311739  0.63953834
   0.21982147  0.16192996  0.72502369
   0.37125143  0.16912205  0.72466486
Direct configuration=    12
   0.16666540  0.33333978  0.38834953
   0.16666914  0.83332975  0.38834714
   0.66666844  0.33333298  0.38834473
   0.66666152  0.83333378  0.38834949
  -0.00051719 -0.00008008  0.61157541
   0.00022343  0.50017234  0.61166889
   0.49992392  0.00006139  0.61163228
   0.50026926  0.50039336  0.61126427
   0.33328894  0.16652525  0.50007228
   0.33324180  0.66674748  0.50005297
   0.83331922  0.16670234  0.49999491
   0.83348482  0.66670218  0.49991035
   0.16668276  0.33331981  0.47112916
   0.16663130  0.83334078  0.47112450
   0.66666176  0.33337119  0.47112947
   0.66668870  0.83330741  0.47113381
   0.00000049 -0.00000156  0.36031649
  -0.00000542  0.50000126  0.36031556
   0.49999816  0.00000446  0.36031653
   0.50000271  0.49999877  0.36031656
   0.33320010  0.16643266  0.58318981
   0.33366006  0.66710281  0.58307674
   0.83326684  0.16628255  0.58314545
   0.83338045  0.66707785  0.58303563
  -0.00015069 -0.00013512  0.52885942
  -0.00013531  0.49999936  0.52883753
   0.50008886  0.00006239  0.52888507
   0.50018132  0.50009395  0.52881256
   0.33333609  0.16666570  0.41684640
   0.33333006  0.66666950  0.41684404
   0.83332964  0.16667024  0.41684616
   0.83333467  0.66666386  0.41684952
   0.16792257  0.33490719  0.63922230
   0.16584927  0.83253083  0.63946995
   0.66792540  0.33435068  0.63915548
   0.66654834  0.83313223  0.63957635
   0.21953287  0.16165533  0.72508308
   0.37145231  0.16926931  0.72471018
Direct configuration=    13
   0.16666782  0.33334142  0.38834389
   0.16667408  0.83333210  0.38833989
   0.66666498  0.33332941  0.38833742
   0.66665757  0.83333391  0.38834331
  -0.00036537  0.00007718  0.61157619
   0.00038939  0.50019749  0.61167306
   0.49981510  0.00003745  0.61161537
   0.50008714  0.50029924  0.61125046
   0.33327652  0.16649992  0.50008675
   0.33322637  0.66676052  0.50006010
   0.83332003  0.16670658  0.49999239
   0.83351230  0.66671246  0.49989108
   0.16668424  0.33331822  0.47109395
   0.16662941  0.83334256  0.47108779
   0.66666058  0.33337322  0.47109365
   0.66669032  0.83330611  0.47109837
  -0.00000091 -0.00000305  0.36023797
  -0.00000581  0.50000198  0.36023678
   0.49999836  0.00000393  0.36023792
   0.50000404  0.50000023  0.36023797
   0.33319496  0.16637417  0.58324212
   0.33373380  0.66721996  0.58311208
   0.83322221  0.16620559  0.58319957
   0.83339402  0.66715357  0.58306881
  -0.00017673 -0.00015520  0.52889144
  -0.00015977  0.49999623  0.52886816
   0.50010811  0.00007735  0.52892464
   0.50021185  0.50010901  0.52883184
   0.33333621  0.16666408  0.41678992
   0.33333015  0.66667143  0.41678726
   0.83332813  0.16666960  0.41678960
   0.83333576  0.66666449  0.41679222
   0.16797721  0.33498942  0.63926746
   0.16578803  0.83248751  0.63953690
   0.66802757  0.33440410  0.63919862
   0.66656456  0.83316190  0.63965237
   0.21895567  0.16110606  0.72520186
   0.37185408  0.16956385  0.72480084
Direct configuration=    14
   0.16667017  0.33334172  0.38832754
   0.16667848  0.83333537  0.38832200
   0.66666089  0.33332587  0.38832023
   0.66665473  0.83333415  0.38832640
  -0.00037269  0.00007452  0.61158909
   0.00039493  0.50020760  0.61168469
   0.49981947  0.00003977  0.61162792
   0.50009890  0.50031363  0.61126201
   0.33327231  0.16649753  0.50008464
   0.33322400  0.66676063  0.50005683
   0.83332319  0.16670750  0.49999131
   0.83351610  0.66671554  0.49988945
   0.16668545  0.33331791  0.47109420
   0.16663438  0.83334629  0.47108691
   0.66665684  0.33336865  0.47109237
   0.66668778  0.83330789  0.47109703
  -0.00000183 -0.00000402  0.36021373
  -0.00000619  0.50000242  0.36021245
   0.49999854  0.00000370  0.36021350
   0.50000497  0.50000114  0.36021364
   0.33318866  0.16635653  0.58325622
   0.33375373  0.66725497  0.58311994
   0.83321661  0.16618557  0.58321396
   0.83340132  0.66718123  0.58307638
  -0.00017300 -0.00014936  0.52889048
  -0.00015946  0.49999374  0.52886802
   0.50010918  0.00008336  0.52892571
   0.50020788  0.50010433  0.52882751
   0.33333592  0.16666261  0.41677480
   0.33332959  0.66667264  0.41677176
   0.83332749  0.16666956  0.41677365
   0.83333708  0.66666503  0.41677501
   0.16799900  0.33501836  0.63928231
   0.16577566  0.83247812  0.63955830
   0.66805618  0.33441831  0.63921010
   0.66656398  0.83317069  0.63967457
   0.21884007  0.16089454  0.72524692
   0.37190166  0.16967596  0.72483842
Direct configuration=    15
   0.16667724  0.33334262  0.38827851
   0.16669169  0.83334517  0.38826834
   0.66664861  0.33331527  0.38826864
   0.66664622  0.83333485  0.38827567
  -0.00039465  0.00006656  0.61162778
   0.00041153  0.50023793  0.61171958
   0.49983255  0.00004670  0.61166558
   0.50013420  0.50035681  0.61129668
   0.33325971  0.16649036  0.50007830
   0.33321690  0.66676095  0.50004703
   0.83333269  0.16671026  0.49998809
   0.83352749  0.66672477  0.49988455
   0.16668907  0.33331699  0.47109497
   0.16664929  0.83335749  0.47108427
   0.66664561  0.33335495  0.47108855
   0.66668017  0.83331322  0.47109301
  -0.00000461 -0.00000692  0.36014102
  -0.00000730  0.50000373  0.36013945
   0.49999907  0.00000298  0.36014026
   0.50000776  0.50000390  0.36014066
   0.33316975  0.16630359  0.58329854
   0.33381354  0.66736001  0.58314350
   0.83319981  0.16612553  0.58325711
   0.83342320  0.66726422  0.58309906
  -0.00016181 -0.00013184  0.52888760
  -0.00015855  0.49998628  0.52886759
   0.50011242  0.00010138  0.52892894
   0.50019598  0.50009031  0.52881449
   0.33333505  0.16665819  0.41672945
   0.33332791  0.66667628  0.41672524
   0.83332557  0.16666944  0.41672582
   0.83334103  0.66666664  0.41672337
   0.16806436  0.33510520  0.63932687
   0.16573855  0.83244992  0.63962252
   0.66814203  0.33446092  0.63924452
   0.66656224  0.83319707  0.63974117
   0.21849327  0.16025995  0.72538208
   0.37204441  0.17001230  0.72495118
Direct configuration=    16
   0.16669137  0.33334442  0.38818044
   0.16671809  0.83336478  0.38816101
   0.66662406  0.33329406  0.38816548
   0.66662919  0.83333626  0.38817421
  -0.00043857  0.00005064  0.61170517
   0.00044473  0.50029859  0.61178937
   0.49985872  0.00006057  0.61174089
   0.50020478  0.50044317  0.61136601
   0.33323449  0.16647601  0.50006562
   0.33320271  0.66676160  0.50002744
   0.83335169  0.16671579  0.49998166
   0.83355029  0.66674323  0.49987477
   0.16669632  0.33331514  0.47109649
   0.16667910  0.83337989  0.47107900
   0.66662315  0.33332756  0.47108090
   0.66666495  0.83332390  0.47108499
  -0.00001015 -0.00001271  0.35999561
  -0.00000953  0.50000636  0.35999345
   0.50000013  0.00000154  0.35999377
   0.50001332  0.50000941  0.35999470
   0.33313195  0.16619772  0.58338318
   0.33393316  0.66757008  0.58319062
   0.83316622  0.16600544  0.58334342
   0.83346698  0.66743020  0.58314444
  -0.00013943 -0.00009680  0.52888183
  -0.00015671  0.49997137  0.52886674
   0.50011888  0.00013743  0.52893538
   0.50017218  0.50006225  0.52878847
   0.33333331  0.16664935  0.41663876
   0.33332455  0.66668355  0.41663219
   0.83332174  0.16666920  0.41663015
   0.83334893  0.66666986  0.41662010
   0.16819507  0.33527887  0.63941597
   0.16566432  0.83239354  0.63975096
   0.66831372  0.33454614  0.63931336
   0.66655876  0.83324983  0.63987438
   0.21779967  0.15899079  0.72565241
   0.37232989  0.17068499  0.72517669
Direct configuration=    17
   0.16671963  0.33334802  0.38798429
   0.16677091  0.83340399  0.38794636
   0.66657496  0.33325165  0.38795915
   0.66659513  0.83333907  0.38797130
  -0.00052641  0.00001880  0.61185995
   0.00051113  0.50041990  0.61192895
   0.49991106  0.00008832  0.61189152
   0.50034594  0.50061589  0.61150468
   0.33318406  0.16644730  0.50004025
   0.33317432  0.66676289  0.49998825
   0.83338968  0.16672684  0.49996878
   0.83359588  0.66678016  0.49985521
   0.16671081  0.33331144  0.47109954
   0.16673874  0.83342469  0.47106844
   0.66657823  0.33327276  0.47106561
   0.66663451  0.83334525  0.47106893
  -0.00002124 -0.00002431  0.35970477
  -0.00001399  0.50001161  0.35970145
   0.50000225 -0.00000132  0.35970079
   0.50002446  0.50002043  0.35970277
   0.33305633  0.16598598  0.58355246
   0.33417240  0.66799022  0.58328486
   0.83309904  0.16576526  0.58351603
   0.83355452  0.66776216  0.58323519
  -0.00009469 -0.00002672  0.52887029
  -0.00015305  0.49994154  0.52886504
   0.50013181  0.00020952  0.52894827
   0.50012456  0.50000613  0.52873643
   0.33332984  0.16663168  0.41645736
   0.33331782  0.66669809  0.41644610
   0.83331407  0.16666872  0.41643881
   0.83336473  0.66667630  0.41641357
   0.16845649  0.33562620  0.63959418
   0.16551586  0.83228077  0.64000783
   0.66865710  0.33471658  0.63945105
   0.66655179  0.83335535  0.64014078
   0.21641247  0.15645246  0.72619306
   0.37290086  0.17203037  0.72562770
Direct configuration=    18
   0.16677615  0.33335522  0.38759201
   0.16687654  0.83348242  0.38751705
   0.66647675  0.33316683  0.38754649
   0.66652701  0.83334470  0.38756547
  -0.00070208 -0.00004489  0.61216950
   0.00064393  0.50066253  0.61220811
   0.50001574  0.00014381  0.61219277
   0.50062826  0.50096134  0.61178201
   0.33308319  0.16638990  0.49998953
   0.33311754  0.66676548  0.49990987
   0.83346566  0.16674894  0.49994303
   0.83368706  0.66685401  0.49981607
   0.16673978  0.33330406  0.47110564
   0.16685800  0.83351429  0.47104734
   0.66648839  0.33316317  0.47103504
   0.66657364  0.83338795  0.47103681
  -0.00004341 -0.00004749  0.35912309
  -0.00002290  0.50002212  0.35911745
   0.50000649 -0.00000706  0.35911482
   0.50004673  0.50004248  0.35911892
   0.33290511  0.16556249  0.58389103
   0.33465088  0.66883050  0.58347334
   0.83296467  0.16528490  0.58386125
   0.83372960  0.66842607  0.58341670
  -0.00000519  0.00011343  0.52884720
  -0.00014573  0.49988188  0.52886164
   0.50015767  0.00035370  0.52897406
   0.50002934  0.49989390  0.52863233
   0.33332288  0.16659633  0.41609457
   0.33330437  0.66672718  0.41607393
   0.83329873  0.16666776  0.41605612
   0.83339633  0.66668918  0.41600049
   0.16897934  0.33632087  0.63995060
   0.16521893  0.83205524  0.64052157
   0.66934386  0.33505746  0.63972642
   0.66653786  0.83356639  0.64067360
   0.21363807  0.15137581  0.72727437
   0.37404280  0.17472112  0.72652973
Direct configuration=    19
   0.16677786  0.33335483  0.38756158
   0.16688025  0.83348582  0.38748398
   0.66647296  0.33316349  0.38751510
   0.66652500  0.83334541  0.38753429
  -0.00072050 -0.00005622  0.61219394
   0.00064635  0.50068066  0.61222934
   0.50002997  0.00015022  0.61221693
   0.50065810  0.50099190  0.61180363
   0.33307979  0.16638783  0.49998593
   0.33311813  0.66676834  0.49990412
   0.83346730  0.16674814  0.49994159
   0.83368952  0.66685817  0.49981345
   0.16674053  0.33330382  0.47110589
   0.16686547  0.83351939  0.47104604
   0.66648382  0.33315623  0.47103301
   0.66656996  0.83339162  0.47103476
  -0.00004392 -0.00004800  0.35908329
  -0.00002266  0.50002271  0.35907753
   0.50000620 -0.00000764  0.35907452
   0.50004692  0.50004322  0.35907902
   0.33289523  0.16553923  0.58391312
   0.33468154  0.66888222  0.58348521
   0.83296124  0.16525696  0.58388296
   0.83373965  0.66846941  0.58342818
   0.00000351  0.00012618  0.52884374
  -0.00014452  0.49987700  0.52886061
   0.50016042  0.00036576  0.52897336
   0.50002034  0.49988420  0.52862535
   0.33332182  0.16659396  0.41606997
   0.33330297  0.66672864  0.41604879
   0.83329843  0.16666801  0.41603048
   0.83339876  0.66669030  0.41597294
   0.16901676  0.33636983  0.63997580
   0.16519900  0.83203907  0.64055720
   0.66938950  0.33508431  0.63974512
   0.66653446  0.83357580  0.64070988
   0.21358397  0.15102585  0.72735126
   0.37397788  0.17489734  0.72659808
Direct configuration=    20
   0.16678298  0.33335364  0.38747030
   0.16689138  0.83349602  0.38738477
   0.66646160  0.33315347  0.38742095
   0.66651899  0.83334753  0.38744076
  -0.00077576 -0.00009023  0.61226725
   0.00065361  0.50073505  0.61229305
   0.50007267  0.00016947  0.61228939
   0.50074762  0.50108360  0.61186847
   0.33306958  0.16638161  0.49997513
   0.33311990  0.66677690  0.49988687
   0.83347223  0.16674575  0.49993727
   0.83369691  0.66687065  0.49980560
   0.16674275  0.33330311  0.47110664
   0.16688788  0.83353470  0.47104216
   0.66647014  0.33313540  0.47102692
   0.66655891  0.83340264  0.47102862
  -0.00004545 -0.00004951  0.35896389
  -0.00002192  0.50002449  0.35895778
   0.50000532 -0.00000935  0.35895363
   0.50004749  0.50004543  0.35895930
   0.33286559  0.16546943  0.58397939
   0.33477352  0.66903740  0.58352084
   0.83295093  0.16517314  0.58394810
   0.83376978  0.66859943  0.58346264
   0.00002962  0.00016440  0.52883333
  -0.00014090  0.49986237  0.52885751
   0.50016869  0.00040195  0.52897128
   0.49999332  0.49985509  0.52860439
   0.33331863  0.16658686  0.41599615
   0.33329876  0.66673302  0.41597336
   0.83329751  0.16666875  0.41595354
   0.83340605  0.66669367  0.41589031
   0.16912901  0.33651669  0.64005138
   0.16513921  0.83199055  0.64066407
   0.66952644  0.33516488  0.63980121
   0.66652427  0.83360404  0.64081873
   0.21342165  0.14997597  0.72758192
   0.37378311  0.17542600  0.72680311
Direct configuration=    21
   0.16679322  0.33335126  0.38728774
   0.16691364  0.83351642  0.38718635
   0.66643889  0.33313344  0.38723265
   0.66650697  0.83335178  0.38725369
  -0.00088629 -0.00015824  0.61241388
   0.00066812  0.50084382  0.61242047
   0.50015806  0.00020796  0.61243432
   0.50092665  0.50126700  0.61199816