CeO2                                    
           1
     7.707464    0.000000    0.000000
    -3.853732    6.674860    0.000000
     0.000000    0.000000   28.319031
   Ce   O    C    O 
  12  24   1   1
Direct configuration=     1
   0.16666700  0.33333300  0.38888900
   0.16666700  0.83333300  0.38888900
   0.66666700  0.33333300  0.38888900
   0.66666700  0.83333300  0.38888900
   0.00000000  0.00000000  0.61111100
   0.00000000  0.50000000  0.61111100
   0.50000000  0.00000000  0.61111100
   0.50000000  0.50000000  0.61111100
   0.33333300  0.16666700  0.50000000
   0.33333300  0.66666700  0.50000000
   0.83333300  0.16666700  0.50000000
   0.83333300  0.66666700  0.50000000
   0.16666700  0.33333300  0.47222200
   0.16666700  0.83333300  0.47222200
   0.66666700  0.33333300  0.47222200
   0.66666700  0.83333300  0.47222200
   0.00000000  0.00000000  0.36111100
   0.00000000  0.50000000  0.36111100
   0.50000000  0.00000000  0.36111100
   0.50000000  0.50000000  0.36111100
   0.33333300  0.16666700  0.58333300
   0.33333300  0.66666700  0.58333300
   0.83333300  0.16666700  0.58333300
   0.83333300  0.66666700  0.58333300
   0.00000000  0.00000000  0.52777800
   0.00000000  0.50000000  0.52777800
   0.50000000  0.00000000  0.52777800
   0.50000000  0.50000000  0.52777800
   0.33333300  0.16666700  0.41666700
   0.33333300  0.66666700  0.41666700
   0.83333300  0.16666700  0.41666700
   0.83333300  0.66666700  0.41666700
   0.16666700  0.33333300  0.63888900
   0.16666700  0.83333300  0.63888900
   0.66666700  0.33333300  0.63888900
   0.66666700  0.83333300  0.63888900
   0.00000000  0.44444400  0.72389500
   0.91445500  0.27335500  0.72389500
Direct configuration=     2
   0.16666915  0.33333682  0.38862201
   0.16666598  0.83333026  0.38862166
   0.66666751  0.33333686  0.38862123
   0.66666444  0.83332862  0.38862220
   0.00000277 -0.00035437  0.61136904
   0.00032795  0.50087639  0.61118661
   0.49969742 -0.00027481  0.61139300
   0.50007698  0.50010408  0.61132944
   0.33333048  0.16666787  0.50001514
   0.33333764  0.66666791  0.50001832
   0.83333217  0.16665866  0.50000743
   0.83333088  0.66667169  0.50002059
   0.16666304  0.33333103  0.47179000
   0.16666601  0.83333391  0.47178948
   0.66666886  0.33333306  0.47179041
   0.66666950  0.83333583  0.47179022
   0.00000006  0.00000102  0.36090192
   0.00000188  0.50000055  0.36090222
   0.49999926 -0.00000167  0.36090183
   0.49999867  0.50000125  0.36090217
   0.33334251  0.16669939  0.58311258
   0.33334782  0.66665611  0.58310549
   0.83334777  0.16666808  0.58312456
   0.83330253  0.66666410  0.58310454
  -0.00000262  0.00000768  0.52819926
  -0.00000308  0.49999857  0.52818547
   0.50001092  0.00000997  0.52819591
   0.50000055  0.49999701  0.52819846
   0.33333232  0.16666887  0.41688052
   0.33333287  0.66666485  0.41687991
   0.83333587  0.16666774  0.41688143
   0.83333228  0.66666694  0.41688014
   0.16748387  0.33351338  0.63892399
   0.16681814  0.83374030  0.63894558
   0.66639157  0.33341292  0.63905281
   0.66664767  0.83327730  0.63907518
   0.00001463  0.44450009  0.72397364
   0.91364871  0.27230077  0.72447559
Direct configuration=     3
   0.16667061  0.33333940  0.38844120
   0.16666530  0.83332840  0.38844061
   0.66666785  0.33333947  0.38843988
   0.66666271  0.83332566  0.38844152
   0.00000465 -0.00059437  0.61154380
   0.00055005  0.50146992  0.61123781
   0.49949250 -0.00046092  0.61158398
   0.50012911  0.50017456  0.61147737
   0.33332877  0.16666846  0.50002539
   0.33334079  0.66666852  0.50003073
   0.83333161  0.16665302  0.50001247
   0.83332945  0.66667486  0.50003454
   0.16666036  0.33332970  0.47149743
   0.16666533  0.83333452  0.47149656
   0.66667011  0.33333309  0.47149813
   0.66667119  0.83333775  0.47149781
   0.00000010  0.00000171  0.36076032
   0.00000315  0.50000092  0.36076082
   0.49999875 -0.00000280  0.36076018
   0.49999776  0.50000209  0.36076074
   0.33334895  0.16672133  0.58296331
   0.33335785  0.66664873  0.58295141
   0.83335778  0.16666881  0.58298339
   0.83328189  0.66666213  0.58294981
  -0.00000439  0.00001288  0.52848456
  -0.00000516  0.49999760  0.52846143
   0.50001831  0.00001672  0.52847894
   0.50000092  0.49999498  0.52848322
   0.33333186  0.16667013  0.41702513
   0.33333278  0.66666339  0.41702410
   0.83333782  0.16666824  0.41702665
   0.83333180  0.66666690  0.41702448
   0.16803710  0.33363553  0.63894768
   0.16692050  0.83401614  0.63898390
   0.66620504  0.33346704  0.63916375
   0.66663458  0.83323958  0.63920127
   0.00002454  0.44453807  0.72402689
   0.91310266  0.27158681  0.72486879
Direct configuration=     4
   0.16667136  0.33333997  0.38837669
   0.16666521  0.83332838  0.38837605
   0.66666744  0.33334019  0.38837532
   0.66666224  0.83332471  0.38837709
   0.00001083 -0.00063597  0.61160361
   0.00061614  0.50164912  0.61125108
   0.49945801 -0.00048782  0.61165008
   0.50013046  0.50017154  0.61153291
   0.33332890  0.16666753  0.50002906
   0.33335311  0.66667567  0.50003020
   0.83332501  0.16664051  0.50001566
   0.83332364  0.66668127  0.50003291
   0.16665948  0.33333152  0.47138283
   0.16666312  0.83333167  0.47138211
   0.66667300  0.33333592  0.47138357
   0.66667122  0.83333652  0.47138314
  -0.00000003  0.00000182  0.36069354
   0.00000344  0.50000102  0.36069410
   0.49999866 -0.00000315  0.36069338
   0.49999757  0.50000243  0.36069398
   0.33335078  0.16671565  0.58291508
   0.33335662  0.66665986  0.58290293
   0.83336387  0.16667661  0.58294258
   0.83328826  0.66666847  0.58290105
  -0.00000697  0.00000747  0.52859720
  -0.00000244  0.50000736  0.52856966
   0.50001674  0.00001362  0.52859106
   0.50000457  0.49999934  0.52859393
   0.33333182  0.16667058  0.41706731
   0.33333282  0.66666296  0.41706657
   0.83333829  0.16666834  0.41706911
   0.83333154  0.66666680  0.41706705
   0.16826704  0.33369561  0.63896285
   0.16695948  0.83412528  0.63900738
   0.66613672  0.33349785  0.63921512
   0.66662904  0.83322395  0.63926133
  -0.00032280  0.44385370  0.72405319
   0.91320082  0.27195270  0.72504931
Direct configuration=     5
   0.16667192  0.33334040  0.38832769
   0.16666514  0.83332836  0.38832701
   0.66666713  0.33334074  0.38832629
   0.66666187  0.83332398  0.38832815
   0.00001552 -0.00066758  0.61164903
   0.00066634  0.50178522  0.61126117
   0.49943182 -0.00050825  0.61170029
   0.50013149  0.50016925  0.61157510
   0.33332900  0.16666683  0.50003185
   0.33336247  0.66668111  0.50002979
   0.83332000  0.16663101  0.50001809
   0.83331924  0.66668614  0.50003167
   0.16665881  0.33333291  0.47129579
   0.16666144  0.83332951  0.47129519
   0.66667520  0.33333806  0.47129656
   0.66667124  0.83333559  0.47129605
  -0.00000013  0.00000190  0.36064282
   0.00000366  0.50000109  0.36064342
   0.49999858 -0.00000341  0.36064265
   0.49999743  0.50000269  0.36064327
   0.33335217  0.16671134  0.58287845
   0.33335568  0.66666832  0.58286611
   0.83336849  0.16668254  0.58291158
   0.83329309  0.66667328  0.58286401
  -0.00000894  0.00000336  0.52868275
  -0.00000038  0.50001477  0.52865186
   0.50001555  0.00001127  0.52867622
   0.50000734  0.50000265  0.52867801
   0.33333179  0.16667092  0.41709935
   0.33333284  0.66666262  0.41709884
   0.83333864  0.16666842  0.41710135
   0.83333134  0.66666672  0.41709938
   0.16844169  0.33374124  0.63897437
   0.16698909  0.83420817  0.63902521
   0.66608483  0.33352124  0.63925413
   0.66662483  0.83321207  0.63930695
  -0.00058660  0.44333391  0.72407316
   0.91327538  0.27223060  0.72518641
Direct configuration=     6
   0.16667207  0.33334051  0.38831498
   0.16666512  0.83332836  0.38831428
   0.66666705  0.33334088  0.38831357
   0.66666178  0.83332379  0.38831546
   0.00001674 -0.00067578  0.61166081
   0.00067937  0.50182054  0.61126378
   0.49942503 -0.00051355  0.61171332
   0.50013175  0.50016865  0.61158605
   0.33332902  0.16666665  0.50003257
   0.33336489  0.66668252  0.50002969
   0.83331869  0.16662855  0.50001872
   0.83331810  0.66668740  0.50003134
   0.16665863  0.33333327  0.47127321
   0.16666101  0.83332895  0.47127263
   0.66667577  0.33333862  0.47127399
   0.66667124  0.83333535  0.47127345
  -0.00000015  0.00000192  0.36062965
   0.00000372  0.50000111  0.36063027
   0.49999856 -0.00000348  0.36062949
   0.49999739  0.50000276  0.36063011
   0.33335253  0.16671022  0.58286894
   0.33335544  0.66667051  0.58285656
   0.83336969  0.16668408  0.58290353
   0.83329434  0.66667452  0.58285440
  -0.00000945  0.00000230  0.52870495
   0.00000016  0.50001670  0.52867318
   0.50001524  0.00001066  0.52869832
   0.50000806  0.50000351  0.52869982
   0.33333178  0.16667101  0.41710767
   0.33333285  0.66666254  0.41710721
   0.83333874  0.16666844  0.41710972
   0.83333129  0.66666670  0.41710777
   0.16848700  0.33375308  0.63897735
   0.16699677  0.83422968  0.63902983
   0.66607137  0.33352731  0.63926425
   0.66662374  0.83320899  0.63931879
  -0.00065505  0.44319904  0.72407834
   0.91329472  0.27230271  0.72522199
Direct configuration=     7
   0.16667203  0.33334048  0.38831855
   0.16666513  0.83332836  0.38831785
   0.66666708  0.33334084  0.38831714
   0.66666181  0.83332385  0.38831902
   0.00001640 -0.00067347  0.61165750
   0.00067571  0.50181062  0.61126305
   0.49942694 -0.00051206  0.61170966
   0.50013168  0.50016882  0.61158297
   0.33332901  0.16666670  0.50003237
   0.33336421  0.66668212  0.50002972
   0.83331906  0.16662924  0.50001854
   0.83331842  0.66668705  0.50003143
   0.16665868  0.33333317  0.47127955
   0.16666113  0.83332910  0.47127897
   0.66667561  0.33333846  0.47128033
   0.66667124  0.83333541  0.47127980
  -0.00000015  0.00000192  0.36063335
   0.00000370  0.50000110  0.36063396
   0.49999857 -0.00000346  0.36063319
   0.49999740  0.50000274  0.36063381
   0.33335242  0.16671053  0.58287161
   0.33335550  0.66666989  0.58285924
   0.83336936  0.16668365  0.58290579
   0.83329399  0.66667417  0.58285710
  -0.00000930  0.00000260  0.52869872
   0.00000001  0.50001616  0.52866720
   0.50001533  0.00001083  0.52869212
   0.50000786  0.50000327  0.52869370
   0.33333178  0.16667098  0.41710533
   0.33333284  0.66666256  0.41710486
   0.83333871  0.16666843  0.41710737
   0.83333130  0.66666671  0.41710542
   0.16847428  0.33374976  0.63897652
   0.16699461  0.83422364  0.63902853
   0.66607515  0.33352561  0.63926141
   0.66662405  0.83320986  0.63931547
  -0.00063584  0.44323690  0.72407688
   0.91328929  0.27228246  0.72521200
Direct configuration=     8
   0.16667207  0.33333965  0.38831780
   0.16666561  0.83332955  0.38831705
   0.66666627  0.33334012  0.38831653
   0.66666217  0.83332442  0.38831803
   0.00002577 -0.00061191  0.61165412
   0.00066093  0.50177226  0.61125701
   0.49948003 -0.00045675  0.61170726
   0.50010781  0.50012948  0.61158758
   0.33333047  0.16666581  0.50003242
   0.33338040  0.66669169  0.50002265
   0.83331022  0.16661468  0.50002038
   0.83331034  0.66669425  0.50002199
   0.16665840  0.33333622  0.47126330
   0.16665841  0.83332493  0.47126288
   0.66667933  0.33334230  0.47126398
   0.66667076  0.83333323  0.47126324
  -0.00000041  0.00000163  0.36060778
   0.00000359  0.50000124  0.36060838
   0.49999868 -0.00000350  0.36060763
   0.49999773  0.50000303  0.36060818
   0.33335267  0.16669121  0.58287875
   0.33334867  0.66669095  0.58286868
   0.83337370  0.16669578  0.58292011
   0.83331436  0.66668476  0.58286650
  -0.00001283 -0.00000741  0.52871537
   0.00000466  0.50003039  0.52868195
   0.50001075  0.00000354  0.52870914
   0.50001311  0.50001083  0.52870770
   0.33333194  0.16667092  0.41709094
   0.33333324  0.66666293  0.41709104
   0.83333831  0.16666807  0.41709315
   0.83333118  0.66666685  0.41709164
   0.16852408  0.33377194  0.63898733
   0.16699969  0.83424362  0.63904338
   0.66607151  0.33354126  0.63928056
   0.66662396  0.83320859  0.63933961
  -0.00066862  0.44317513  0.72408241
   0.91322604  0.27221734  0.72528352
Direct configuration=     9
   0.16667218  0.33333718  0.38831556
   0.16666707  0.83333312  0.38831464
   0.66666384  0.33333794  0.38831472
   0.66666326  0.83332614  0.38831507
   0.00005390 -0.00042722  0.61164397
   0.00061660  0.50165718  0.61123890
   0.49963929 -0.00029083  0.61170004
   0.50003621  0.50001147  0.61160141
   0.33333484  0.16666313  0.50003258
   0.33342898  0.66672040  0.50000146
   0.83328369  0.16657099  0.50002588
   0.83328612  0.66671586  0.49999364
   0.16665755  0.33334538  0.47121457
   0.16665027  0.83331239  0.47121462
   0.66669047  0.33335380  0.47121494
   0.66666931  0.83332667  0.47121357
  -0.00000121  0.00000076  0.36053109
   0.00000325  0.50000163  0.36053165
   0.49999902 -0.00000360  0.36053098
   0.49999871  0.50000392  0.36053130
   0.33335340  0.16663325  0.58290016
   0.33332817  0.66675411  0.58289701
   0.83338675  0.16673216  0.58296308
   0.83337548  0.66671653  0.58289472
  -0.00002342 -0.00003744  0.52876532
   0.00001863  0.50007308  0.52872621
   0.49999700 -0.00001831  0.52876022
   0.50002886  0.50003350  0.52874969
   0.33333241  0.16667073  0.41704778
   0.33333443  0.66666405  0.41704958
   0.83333710  0.16666697  0.41705050
   0.83333082  0.66666728  0.41705030
   0.16867348  0.33383848  0.63901978
   0.16701492  0.83430354  0.63908791
   0.66606058  0.33358820  0.63933802
   0.66662371  0.83320477  0.63941204
  -0.00076696  0.44298982  0.72409901
   0.91303627  0.27202195  0.72549808
Direct configuration=    10
   0.16667242  0.33333223  0.38831107
   0.16666999  0.83334026  0.38830982
   0.66665900  0.33333359  0.38831109
   0.66666545  0.83332959  0.38830915
   0.00011016 -0.00005783  0.61162366
   0.00052794  0.50142702  0.61120268
   0.49995783  0.00004102  0.61168561
   0.49989301  0.49977544  0.61162907
   0.33334358  0.16665779  0.50003289
   0.33352613  0.66677783  0.49995908
   0.83323062  0.16648362  0.50003688
   0.83323768  0.66675909  0.49993694
   0.16665585  0.33336370  0.47111709
   0.16663397  0.83328732  0.47111811
   0.66671275  0.33337681  0.47111685
   0.66666641  0.83331354  0.47111423
  -0.00000281 -0.00000098  0.36037770
   0.00000258  0.50000243  0.36037819
   0.49999969 -0.00000381  0.36037766
   0.50000066  0.50000568  0.36037754
   0.33335487  0.16651732  0.58294298
   0.33328718  0.66688042  0.58295366
   0.83341284  0.16680492  0.58304902
   0.83349770  0.66678005  0.58295115
  -0.00004459 -0.00009749  0.52886522
   0.00004657  0.50015847  0.52881474
   0.49996951 -0.00006201  0.52886238
   0.50006036  0.50007885  0.52883368
   0.33333337  0.16667035  0.41696145
   0.33333681  0.66666628  0.41696667
   0.83333470  0.16666477  0.41696519
   0.83333009  0.66666814  0.41696762
   0.16897228  0.33397157  0.63908469
   0.16704538  0.83442339  0.63917697
   0.66603872  0.33368209  0.63945294
   0.66662319  0.83319713  0.63955691
  -0.00096363  0.44261920  0.72413219
   0.91265674  0.27163119  0.72592720
Direct configuration=    11
   0.16667289  0.33332234  0.38830211
   0.16667583  0.83335455  0.38830017
   0.66664930  0.33332488  0.38830383
   0.66666982  0.83333648  0.38829730
   0.00022268  0.00068093  0.61158306
   0.00035061  0.50096670  0.61113023
   0.50059491  0.00070471  0.61165676
   0.49960662  0.49930339  0.61168440
   0.33336106  0.16664710  0.50003352
   0.33372043  0.66689267  0.49987432
   0.83312450  0.16630887  0.50005889
   0.83314081  0.66684554  0.49982354
   0.16665246  0.33340034  0.47092215
   0.16660138  0.83323719  0.47092507
   0.66675732  0.33342283  0.47092068
   0.66666061  0.83328730  0.47091556
  -0.00000600 -0.00000445  0.36007092
   0.00000123  0.50000402  0.36007126
   0.50000104 -0.00000423  0.36007103
   0.50000458  0.50000922  0.36007003
   0.33335780  0.16628547  0.58302862
   0.33320519  0.66713306  0.58306696
   0.83346502  0.16695045  0.58322090
   0.83374215  0.66690711  0.58306402
  -0.00008693 -0.00021760  0.52906502
   0.00010245  0.50032924  0.52899179
   0.49991452 -0.00014941  0.52906670
   0.50012337  0.50016955  0.52900166
   0.33333527  0.16666960  0.41678880
   0.33334157  0.66667075  0.41680085
   0.83332988  0.16666037  0.41679458
   0.83332864  0.66666985  0.41680227
   0.16956988  0.33423774  0.63921449
   0.16710629  0.83466309  0.63935509
   0.66599501  0.33386986  0.63968278
   0.66662217  0.83318187  0.63984665
  -0.00135699  0.44187795  0.72419856
   0.91189767  0.27084966  0.72678545
Direct configuration=    12
   0.16666804  0.33331531  0.38826577
   0.16668118  0.83336199  0.38826218
   0.66664585  0.33331544  0.38826690
   0.66667253  0.83334563  0.38825522
   0.00023857  0.00072011  0.61160947
   0.00037319  0.50101024  0.61115037
   0.50063598  0.00074900  0.61168833
   0.49961497  0.49929952  0.61171782
   0.33336749  0.16665391  0.50003279
   0.33373068  0.66689478  0.49986988
   0.83312331  0.16630923  0.50005584
   0.83312975  0.66684422  0.49981591
   0.16664270  0.33339609  0.47091243
   0.16660188  0.83323863  0.47091198
   0.66676268  0.33341876  0.47091000
   0.66666564  0.83329711  0.47090205
  -0.00000857 -0.00000763  0.36001014
   0.00000132  0.50000601  0.36001073
   0.50000090 -0.00000623  0.36001025
   0.50000694  0.50001241  0.36000934
   0.33337467  0.16625894  0.58304080
   0.33319600  0.66718299  0.58308735
   0.83348853  0.16700008  0.58325483
   0.83377989  0.66692681  0.58308453
  -0.00010104 -0.00021567  0.52907012
   0.00010100  0.50033397  0.52899046
   0.49993682 -0.00014362  0.52907178
   0.50012775  0.50017821  0.52900281
   0.33333569  0.16666873  0.41675119
   0.33334796  0.66667512  0.41676214
   0.83332543  0.16665368  0.41675909
   0.83332592  0.66667309  0.41676292
   0.16966733  0.33428110  0.63924466
   0.16712431  0.83472686  0.63938766
   0.66599547  0.33390089  0.63972966
   0.66663434  0.83320202  0.63990181
  -0.00152635  0.44155654  0.72421283
   0.91176622  0.27076474  0.72700796
Direct configuration=    13
   0.16665351  0.33329420  0.38815674
   0.16669724  0.83338434  0.38814822
   0.66663550  0.33328709  0.38815610
   0.66668065  0.83337305  0.38812898
   0.00028625  0.00083766  0.61168872
   0.00044094  0.50114085  0.61121079
   0.50075920  0.00088186  0.61178305
   0.49964003  0.49928791  0.61181807
   0.33338678  0.16667434  0.50003060
   0.33376142  0.66690109  0.49985658
   0.83311973  0.16631034  0.50004670
   0.83309657  0.66684026  0.49979301
   0.16661341  0.33338337  0.47088328
   0.16660337  0.83324297  0.47087270
   0.66677877  0.33340654  0.47087793
   0.66668074  0.83332656  0.47086152
  -0.00001625 -0.00001716  0.35982778
   0.00000162  0.50001199  0.35982912
   0.50000048 -0.00001225  0.35982792
   0.50001403  0.50002197  0.35982728
   0.33342528  0.16617934  0.58307736
   0.33316845  0.66733277  0.58314850
   0.83355906  0.16714897  0.58335662
   0.83389311  0.66698592  0.58314605
  -0.00014334 -0.00020988  0.52908542
   0.00009668  0.50034816  0.52898648
   0.50000372 -0.00012624  0.52908703
   0.50014092  0.50020417  0.52900628
   0.33333692  0.16666614  0.41663837
   0.33336711  0.66668823  0.41664602
   0.83331210  0.16663359  0.41665263
   0.83331776  0.66668279  0.41664489
   0.16995971  0.33441118  0.63933516
   0.16717837  0.83491816  0.63948534
   0.66599687  0.33399399  0.63987032
   0.66667086  0.83326248  0.64006728
  -0.00203443  0.44059231  0.72425565
   0.91137187  0.27050997  0.72767550
Direct configuration=    14
   0.16662444  0.33325198  0.38793869
   0.16672935  0.83342902  0.38792031
   0.66661481  0.33323040  0.38793451
   0.66669689  0.83342791  0.38787649
   0.00038160  0.00107276  0.61184722
   0.00057645  0.50140209  0.61133163
   0.50100562  0.00114759  0.61197248
   0.49969015  0.49926468  0.61201859
   0.33342536  0.16671519  0.50002621
   0.33382291  0.66691371  0.49982998
   0.83311257  0.16631254  0.50002841
   0.83303022  0.66683234  0.49974722
   0.16655484  0.33335792  0.47082499
   0.16660636  0.83325164  0.47079415
   0.66681095  0.33338210  0.47081381
   0.66671093  0.83338544  0.47078046
  -0.00003163 -0.00003623  0.35946306
   0.00000221  0.50002394  0.35946592
   0.49999965 -0.00002428  0.35946325
   0.50002820  0.50004109  0.35946315
   0.33352650  0.16602014  0.58315049
   0.33311335  0.66763233  0.58327080
   0.83370011  0.16744675  0.58356021
   0.83411955  0.66710413  0.58326908
  -0.00022795 -0.00019831  0.52911602
   0.00008803  0.50037655  0.52897851
   0.50013753 -0.00009150  0.52911753
   0.50016724  0.50025610  0.52901322
   0.33333939  0.16666094  0.41641273
   0.33340543  0.66671445  0.41641378
   0.83328544  0.16659342  0.41643970
   0.83330144  0.66670221  0.41640882
   0.17054446  0.33467133  0.63951617
   0.16728648  0.83530077  0.63968071
   0.66599966  0.33418017  0.64015165
   0.66674389  0.83338339  0.64039822
  -0.00305060  0.43866384  0.72434128
   0.91058317  0.27000044  0.72901057
Direct configuration=    15
   0.16656629  0.33316754  0.38750259
   0.16679358  0.83351839  0.38746447
   0.66657342  0.33311701  0.38749133
   0.66672936  0.83353763  0.38737151
   0.00057230  0.00154296  0.61216422
   0.00084746  0.50192456  0.61157331
   0.50149848  0.00167904  0.61235135
   0.49979039  0.49921823  0.61241962
   0.33350252  0.16679689  0.50001744
   0.33394588  0.66693896  0.49977677
   0.83309826  0.16631695  0.49999183
   0.83289751  0.66681649  0.49965564
   0.16643770  0.33330701  0.47070841
   0.16661234  0.83326899  0.47063704
   0.66687530  0.33333323  0.47068557
   0.66677133  0.83350322  0.47061833
  -0.00006238 -0.00007437  0.35873363
   0.00000340  0.50004784  0.35873950
   0.49999799 -0.00004833  0.35873392
   0.50005654  0.50007933  0.35873490
   0.33372895  0.16570174  0.58329673
   0.33300314  0.66823145  0.58351540
   0.83398222  0.16804231  0.58396738
   0.83457243  0.66734056  0.58351516
  -0.00039718 -0.00017516  0.52917722
   0.00007072  0.50043334  0.52896257
   0.50040514 -0.00002201  0.52917853
   0.50021988  0.50035995  0.52902709
   0.33334434  0.16665054  0.41596144
   0.33348206  0.66676689  0.41594930
   0.83323211  0.16651308  0.41601384
   0.83326881  0.66674104  0.41593668
   0.17171395  0.33519163  0.63987818
   0.16750271  0.83606598  0.64007145
   0.66600524  0.33455255  0.64071429
   0.66688996  0.83362522  0.64106010
  -0.00508293  0.43480691  0.72451254
   0.90900576  0.26898137  0.73168072
Direct configuration=    16
   0.16656463  0.33316527  0.38748728
   0.16679538  0.83352080  0.38744854
   0.66657235  0.33311386  0.38747575
   0.66673022  0.83354070  0.38735393
   0.00057842  0.00155331  0.61217524
   0.00085889  0.50194714  0.61158231
   0.50151027  0.00169210  0.61236442
   0.49979653  0.49922097  0.61243282
   0.33350484  0.16679910  0.50001688
   0.33394876  0.66693973  0.49977524
   0.83309841  0.16631821  0.49999024
   0.83289427  0.66681592  0.49965298
   0.16643402  0.33330511  0.47070534
   0.16661288  0.83327014  0.47063265
   0.66687701  0.33333137  0.47068210
   0.66677338  0.83350726  0.47061374
  -0.00006328 -0.00007539  0.35871028
   0.00000338  0.50004844  0.35871632
   0.49999804 -0.00004894  0.35871055
   0.50005734  0.50008040  0.35871163
   0.33373650  0.16569359  0.58330132
   0.33300052  0.66825020  0.58352320
   0.83399193  0.16806212  0.58398035
   0.83458573  0.66734777  0.58352299
  -0.00040277 -0.00017328  0.52917830
   0.00006982  0.50043418  0.52896114
   0.50041530 -0.00001876  0.52917949
   0.50022132  0.50036312  0.52902687
   0.33334457  0.16665035  0.41594701
   0.33348457  0.66676853  0.41593439
   0.83323043  0.16651055  0.41600019
   0.83326767  0.66674224  0.41592152
   0.17175013  0.33520755  0.63989017
   0.16750989  0.83609132  0.64008399
   0.66600568  0.33456446  0.64073244
   0.66689526  0.83363373  0.64108109
  -0.00512504  0.43472851  0.72451551
   0.90892778  0.26889731  0.73177180
Direct configuration=    17
   0.16655966  0.33315847  0.38744137
   0.16680078  0.83352803  0.38740077
   0.66656914  0.33310439  0.38742902
   0.66673278  0.83354993  0.38730121
   0.00059680  0.00158437  0.61220828
   0.00089315  0.50201489  0.61160930
   0.50154563  0.00173129  0.61240363
   0.49981493  0.49922921  0.61247240
   0.33351179  0.16680571  0.50001518
   0.33395738  0.66694204  0.49977067
   0.83309889  0.16632199  0.49998548
   0.83288453  0.66681419  0.49964499
   0.16642297  0.33329941  0.47069615
   0.16661448  0.83327362  0.47061946
   0.66688212  0.33332579  0.47067171
   0.66677955  0.83351936  0.47059996
  -0.00006596 -0.00007844  0.35864022
   0.00000334  0.50005021  0.35864679
   0.49999817 -0.00005077  0.35864045
   0.50005975  0.50008362  0.35864180
   0.33375915  0.16566914  0.58331507
   0.33299267  0.66830643  0.58354659
   0.83402104  0.16812153  0.58401924
   0.83462560  0.66736939  0.58354646
  -0.00041955 -0.00016766  0.52918153
   0.00006711  0.50043670  0.52895685
   0.50044577 -0.00000901  0.52918237
   0.50022564  0.50037261  0.52902619
   0.33334527  0.16664979  0.41590371
   0.33349211  0.66677343  0.41588968
   0.83322538  0.16650294  0.41595925
   0.83326423  0.66674582  0.41587605
   0.17185865  0.33525530  0.63992611
   0.16753141  0.83616735  0.64012163
   0.66600701  0.33460018  0.64078689
   0.66691117  0.83365928  0.64114406
  -0.00525138  0.43449333  0.72452444
   0.90869385  0.26864514  0.73204505
Direct configuration=    18
   0.16654970  0.33314487  0.38734954
   0.16681158  0.83354248  0.38730523
   0.66656273  0.33308547  0.38733556
   0.66673790  0.83356839  0.38719576
   0.00063357  0.00164650  0.61227437
   0.00096168  0.50215037  0.61166328
   0.50161635  0.00180965  0.61248205
   0.49985174  0.49924569  0.61255157
   0.33352570  0.16681894  0.50001177
   0.33397463  0.66694665  0.49976151
   0.83309983  0.16632955  0.49997596
   0.83286505  0.66681074  0.49962902
   0.16640087  0.33328800  0.47067777
   0.16661768  0.83328057  0.47059309
   0.66689235  0.33331463  0.47065091
   0.66679188  0.83354356  0.47057239
  -0.00007134 -0.00008454  0.35850010
   0.00000326  0.50005377  0.35850771
   0.49999845 -0.00005443  0.35850025
   0.50006456  0.50009006  0.35850214
   0.33380444  0.16562024  0.58334258
   0.33297696  0.66841890  0.58359338
   0.83407927  0.16824036  0.58409703
   0.83470535  0.66741264  0.58359342
  -0.00045311 -0.00015643  0.52918799
   0.00006170  0.50044174  0.52894825
   0.50050671  0.00001048  0.52918812
   0.50023427  0.50039159  0.52902484
   0.33334666  0.16664867  0.41581712
   0.33350720  0.66678323  0.41580025
   0.83321529  0.16648772  0.41587737
   0.83325736  0.66675300  0.41578510
   0.17207570  0.33535080  0.63999801
   0.16757447  0.83631940  0.64019690
   0.66600966  0.33467163  0.64089577
   0.66694299  0.83371036  0.64127001
  -0.00550405  0.43402296  0.72454230
   0.90822598  0.26814079  0.73259156
Direct configuration=    19
   0.16652979  0.33311766  0.38716588
   0.16683317  0.83357138  0.38711415
   0.66654990  0.33304761  0.38714864
   0.66674814  0.83360531  0.38698486
   0.00070709  0.00177076  0.61240654
   0.00109874  0.50242134  0.61177124
   0.50175779  0.00196639  0.61263889
   0.49992536  0.49927865  0.61270991
   0.33355351  0.16684539  0.50000497
   0.33400913  0.66695586  0.49974319
   0.83310171  0.16634467  0.49995693
   0.83282610  0.66680384  0.49959707
   0.16635667  0.33326519  0.47064101
   0.16662409  0.83329446  0.47054036
   0.66691281  0.33329230  0.47060933
   0.66681654  0.83359197  0.47051727
  -0.00008209 -0.00009674  0.35821987
   0.00000310  0.50006088  0.35822956
   0.49999899 -0.00006174  0.35821984
   0.50007419  0.50010294  0.35822281
   0.33389504  0.16552244  0.58339759
   0.33294554  0.66864385  0.58368695
   0.83419572  0.16847802  0.58425262
   0.83486484  0.66749912  0.58368734
  -0.00052023 -0.00013395  0.52920092
   0.00005087  0.50045182  0.52893106
   0.50062860  0.00004948  0.52919962
   0.50025153  0.50042956  0.52902213
   0.33334945  0.16664642  0.41564394
   0.33353736  0.66680284  0.41562140
   0.83319511  0.16645728  0.41571361
   0.83324361  0.66676735  0.41560320
   0.17250979  0.33554179  0.64014181
   0.16766057  0.83662350  0.64034745
   0.66601498  0.33481452  0.64111355
   0.66700663  0.83381254  0.64152191
  -0.00600939  0.43308222  0.72457801
   0.90729025  0.26713210  0.73368457
Direct configuration=    20
   0.16648996  0.33306324  0.38679856
   0.16687637  0.83362919  0.38673199
   0.66652424  0.33297190  0.38677480
   0.66676863  0.83367914  0.38656306
   0.00085414  0.00201926  0.61267089
   0.00137286  0.50296327  0.61198716
   0.50204066  0.00227985  0.61295256
   0.50007260  0.49934456  0.61302660
   0.33360913  0.16689830  0.49999135
   0.33407814  0.66697430  0.49970657
   0.83310548  0.16637490  0.49991886
   0.83274820  0.66679003  0.49953318
   0.16626827  0.33321956  0.47056748
   0.16663690  0.83332226  0.47043488
   0.66695374  0.33324765  0.47052615
   0.66686586  0.83368878  0.47040701
  -0.00010360 -0.00012113  0.35765941
   0.00000278  0.50007510  0.35767326
   0.50000009 -0.00007637  0.35765903
   0.50009345  0.50012870  0.35766417
   0.33407623  0.16532683  0.58350762
   0.33288270  0.66909373  0.58387408
   0.83442863  0.16895334  0.58456378
   0.83518383  0.66767210  0.58387518
  -0.00065447 -0.00008900  0.52922677
   0.00002922  0.50047199  0.52889669
   0.50087237  0.00012746  0.52922264
   0.50028606  0.50050549  0.52901673
   0.33335502  0.16664193  0.41529757
   0.33359769  0.66684205  0.41526370
   0.83315474  0.16639641  0.41538608
   0.83321612  0.66679605  0.41523941
   0.17337797  0.33592378  0.64042940
   0.16783277  0.83723170  0.64064855
   0.66602560  0.33510032  0.64154910
   0.66713391  0.83401689  0.64202571
  -0.00702008  0.43120075  0.72464944
   0.90541878  0.26511471  0.73587058
Direct configuration=    21
   0.16650661  0.33308599  0.38695211
   0.16685831  0.83360502  0.38689174
   0.66653496  0.33300355  0.38693107
   0.66676007  0.83364827  0.38673938
   0.00079267  0.00191538  0.61256039
   0.00125827  0.50273673  0.61189690
   0.50192241  0.00214882  0.61282144
   0.50001105  0.49931701  0.61289422