CeO2                                    
           1
     7.707464    0.000000    0.000000
    -3.853732    6.674860    0.000000
     0.000000    0.000000   28.319031
   Ce   O    C    O 
  12  24   1   1
Direct configuration=     1
   0.16666700  0.33333300  0.38888900
   0.16666700  0.83333300  0.38888900
   0.66666700  0.33333300  0.38888900
   0.66666700  0.83333300  0.38888900
   0.00000000  0.00000000  0.61111100
   0.00000000  0.50000000  0.61111100
   0.50000000  0.00000000  0.61111100
   0.50000000  0.50000000  0.61111100
   0.33333300  0.16666700  0.50000000
   0.33333300  0.66666700  0.50000000
   0.83333300  0.16666700  0.50000000
   0.83333300  0.66666700  0.50000000
   0.16666700  0.33333300  0.47222200
   0.16666700  0.83333300  0.47222200
   0.66666700  0.33333300  0.47222200
   0.66666700  0.83333300  0.47222200
   0.00000000  0.00000000  0.36111100
   0.00000000  0.50000000  0.36111100
   0.50000000  0.00000000  0.36111100
   0.50000000  0.50000000  0.36111100
   0.33333300  0.16666700  0.58333300
   0.33333300  0.66666700  0.58333300
   0.83333300  0.16666700  0.58333300
   0.83333300  0.66666700  0.58333300
   0.00000000  0.00000000  0.52777800
   0.00000000  0.50000000  0.52777800
   0.50000000  0.00000000  0.52777800
   0.50000000  0.50000000  0.52777800
   0.33333300  0.16666700  0.41666700
   0.33333300  0.66666700  0.41666700
   0.83333300  0.16666700  0.41666700
   0.83333300  0.66666700  0.41666700
   0.16666700  0.33333300  0.63888900
   0.16666700  0.83333300  0.63888900
   0.66666700  0.33333300  0.63888900
   0.66666700  0.83333300  0.63888900
   0.22222200  0.38888900  0.72389500
   0.22222200  0.38888900  0.76422100
Direct configuration=     2
   0.16666483  0.33333199  0.38860240
   0.16666772  0.83333407  0.38860098
   0.66666723  0.33333196  0.38860074
   0.66666723  0.83333497  0.38860117
   0.00007147  0.00029750  0.61117813
   0.00000083  0.49984832  0.61117305
   0.50002908  0.00000560  0.61131068
   0.49992842  0.49998687  0.61125402
   0.33330273  0.16667370  0.50000317
   0.33331316  0.66663485  0.49999774
   0.83336918  0.16667734  0.50000795
   0.83334307  0.66667976  0.49999877
   0.16666650  0.33333221  0.47178911
   0.16665842  0.83332972  0.47179557
   0.66667072  0.33334128  0.47179723
   0.66667160  0.83332936  0.47179578
   0.00000360  0.00000855  0.36090786
   0.00000617  0.49999655  0.36090752
   0.49999955 -0.00000166  0.36090686
   0.49999058  0.49999743  0.36090766
   0.33351807  0.16666439  0.58313867
   0.33341763  0.66677114  0.58314204
   0.83306385  0.16659149  0.58313267
   0.83331135  0.66663153  0.58313223
  -0.00001455 -0.00003490  0.52820101
  -0.00001295  0.50001982  0.52821520
   0.49999787  0.00000009  0.52821318
   0.50003064  0.50001507  0.52822198
   0.33332794  0.16666946  0.41688320
   0.33333030  0.66665989  0.41688224
   0.83334140  0.16666901  0.41688343
   0.83333408  0.66666909  0.41688630
   0.16432476  0.33104311  0.63714203
   0.16676592  0.83331933  0.63917674
   0.66663719  0.33330221  0.63916544
   0.66656820  0.83331251  0.63916122
   0.22594701  0.39239196  0.72521267
   0.22086321  0.38761243  0.76518936
Direct configuration=     3
   0.16666172  0.33333053  0.38819223
   0.16666876  0.83333560  0.38818878
   0.66666756  0.33333048  0.38818819
   0.66666756  0.83333779  0.38818924
   0.00017376  0.00072328  0.61127420
   0.00000201  0.49963124  0.61126185
   0.50007069  0.00001361  0.61159646
   0.49982597  0.49996808  0.61145871
   0.33325940  0.16668329  0.50000770
   0.33328476  0.66658884  0.49999449
   0.83342095  0.16669214  0.50001934
   0.83335749  0.66669801  0.49999702
   0.16666578  0.33333107  0.47116957
   0.16664615  0.83332504  0.47118528
   0.66667605  0.33335314  0.47118930
   0.66667819  0.83332416  0.47118578
   0.00000876  0.00002078  0.36061714
   0.00001501  0.49999161  0.36061632
   0.49999891 -0.00000403  0.36061469
   0.49997709  0.49999375  0.36061663
   0.33378294  0.16666065  0.58286056
   0.33353874  0.66692019  0.58286874
   0.83267866  0.16648342  0.58284597
   0.83328037  0.66658076  0.58284488
  -0.00003538 -0.00008486  0.52880642
  -0.00003148  0.50004818  0.52884092
   0.49999482  0.00000022  0.52883601
   0.50007449  0.50003664  0.52885739
   0.33332070  0.16667297  0.41719262
   0.33332644  0.66664971  0.41719028
   0.83335343  0.16667188  0.41719317
   0.83333562  0.66667208  0.41720015
   0.16097262  0.32776589  0.63464183
   0.16690750  0.83329977  0.63958855
   0.66659453  0.33325815  0.63956107
   0.66642680  0.83328319  0.63955082
   0.23127812  0.39740530  0.72709847
   0.21891855  0.38578545  0.76657525
Direct configuration=     4
   0.16666076  0.33332968  0.38813333
   0.16666874  0.83333625  0.38813014
   0.66666766  0.33333004  0.38812997
   0.66666830  0.83333890  0.38813081
   0.00013531  0.00068732  0.61127533
  -0.00004959  0.49962532  0.61126281
   0.50006941  0.00001295  0.61164539
   0.49986220  0.49998402  0.61148064
   0.33326194  0.16668042  0.50001186
   0.33328976  0.66659489  0.49999581
   0.83341236  0.16668570  0.50002421
   0.83335693  0.66670040  0.49999651
   0.16666711  0.33333342  0.47106142
   0.16664332  0.83332212  0.47107768
   0.66667771  0.33335729  0.47108206
   0.66667769  0.83332077  0.47107823
   0.00000919  0.00002179  0.36055148
   0.00001599  0.49999145  0.36055061
   0.49999873 -0.00000438  0.36054884
   0.49997590  0.49999365  0.36055097
   0.33388440  0.16664704  0.58281770
   0.33358787  0.66698022  0.58283224
   0.83250099  0.16641976  0.58279372
   0.83325153  0.66655051  0.58280358
  -0.00003791 -0.00009231  0.52890307
  -0.00003098  0.50005561  0.52894322
   0.49998905 -0.00000595  0.52893687
   0.50008144  0.50004281  0.52896510
   0.33331962  0.16667319  0.41722539
   0.33332588  0.66664862  0.41722309
   0.83335499  0.16667223  0.41722597
   0.83333609  0.66667270  0.41723339
   0.16040465  0.32721377  0.63421761
   0.16694321  0.83328959  0.63967358
   0.66657941  0.33325952  0.63964496
   0.66637837  0.83325600  0.63963263
   0.23249840  0.39854445  0.72720599
   0.21840759  0.38530823  0.76711978
Direct configuration=     5
   0.16666012  0.33332910  0.38809335
   0.16666872  0.83333668  0.38809034
   0.66666773  0.33332974  0.38809045
   0.66666880  0.83333965  0.38809116
   0.00010921  0.00066291  0.61127609
  -0.00008462  0.49962130  0.61126346
   0.50006854  0.00001251  0.61167860
   0.49988680  0.49999484  0.61149552
   0.33326367  0.16667847  0.50001469
   0.33329315  0.66659901  0.49999670
   0.83340653  0.16668133  0.50002752
   0.83335655  0.66670203  0.49999616
   0.16666801  0.33333501  0.47098801
   0.16664140  0.83332014  0.47100466
   0.66667883  0.33336010  0.47100927
   0.66667735  0.83331848  0.47100523
   0.00000948  0.00002247  0.36050691
   0.00001666  0.49999134  0.36050602
   0.49999861 -0.00000462  0.36050415
   0.49997508  0.49999358  0.36050640
   0.33395326  0.16663781  0.58278860
   0.33362122  0.66702096  0.58280748
   0.83238040  0.16637655  0.58275826
   0.83323195  0.66652998  0.58277555
  -0.00003963 -0.00009737  0.52896866
  -0.00003064  0.50006065  0.52901266
   0.49998513 -0.00001013  0.52900533
   0.50008616  0.50004699  0.52903821
   0.33331889  0.16667334  0.41724764
   0.33332550  0.66664789  0.41724536
   0.83335604  0.16667246  0.41724824
   0.83333641  0.66667312  0.41725595
   0.16001917  0.32683903  0.63392967
   0.16696745  0.83328269  0.63973128
   0.66656915  0.33326045  0.63970190
   0.66634550  0.83323754  0.63968816
   0.23332663  0.39931762  0.72727897
   0.21806079  0.38498433  0.76748937
Direct configuration=     6
   0.16665947  0.33332820  0.38810531
   0.16666888  0.83333737  0.38810300
   0.66666753  0.33332907  0.38810366
   0.66666940  0.83334058  0.38810397
   0.00002933  0.00051106  0.61125589
  -0.00015735  0.49966229  0.61124466
   0.50005700  0.00000888  0.61168065
   0.49995985  0.50002113  0.61147858
   0.33327767  0.16667201  0.50001797
   0.33330679  0.66661849  0.49999805
   0.83338173  0.16666871  0.50003017
   0.83335231  0.66670080  0.49999377
   0.16667029  0.33333862  0.47098132
   0.16663979  0.83331694  0.47099685
   0.66667991  0.33336358  0.47100146
   0.66667521  0.83331451  0.47099742
   0.00000892  0.00002117  0.36048287
   0.00001602  0.49999210  0.36048204
   0.49999846 -0.00000460  0.36048020
   0.49997631  0.49999415  0.36048245
   0.33403415  0.16661911  0.58279269
   0.33366154  0.66707004  0.58281938
   0.83221848  0.16631126  0.58275110
   0.83319834  0.66649895  0.58278355
  -0.00003912 -0.00009831  0.52896326
  -0.00002640  0.50006576  0.52901045
   0.49997637 -0.00001996  0.52900118
   0.50008742  0.50005149  0.52904132
   0.33331911  0.16667274  0.41722301
   0.33332566  0.66664882  0.41722109
   0.83335525  0.16667215  0.41722353
   0.83333664  0.66667324  0.41723101
   0.16000243  0.32682857  0.63391233
   0.16698240  0.83327138  0.63975401
   0.66655869  0.33327503  0.63972680
   0.66631095  0.83320439  0.63971146
   0.23370055  0.39965702  0.72736529
   0.21790403  0.38484126  0.76756427
Direct configuration=     7
   0.16665752  0.33332551  0.38814117
   0.16666936  0.83333944  0.38814096
   0.66666693  0.33332705  0.38814330
   0.66667119  0.83334339  0.38814238
  -0.00021032  0.00005549  0.61119527
  -0.00037554  0.49978525  0.61118828
   0.50002240 -0.00000202  0.61168683
   0.50017902  0.50010001  0.61142779
   0.33331966  0.16665261  0.50002780
   0.33334770  0.66667694  0.50000210
   0.83330735  0.16663085  0.50003811
   0.83333957  0.66669712  0.49998658
   0.16667711  0.33334946  0.47096123
   0.16663497  0.83330733  0.47097345
   0.66668315  0.33337402  0.47097801
   0.66666878  0.83330258  0.47097398
   0.00000723  0.00001727  0.36041074
   0.00001411  0.49999438  0.36041011
   0.49999800 -0.00000456  0.36040835
   0.49997998  0.49999589  0.36041058
   0.33427681  0.16656302  0.58280494
   0.33378250  0.66721727  0.58285509
   0.83173273  0.16611539  0.58272963
   0.83309750  0.66640584  0.58280756
  -0.00003759 -0.00010114  0.52894705
  -0.00001369  0.50008112  0.52900382
   0.49995007 -0.00004945  0.52898871
   0.50009122  0.50006499  0.52905063
   0.33331977  0.16667093  0.41714913
   0.33332616  0.66665161  0.41714827
   0.83335287  0.16667122  0.41714941
   0.83333736  0.66667360  0.41715617
   0.15995223  0.32679719  0.63386031
   0.16702724  0.83323745  0.63982218
   0.66652729  0.33331876  0.63980150
   0.66620731  0.83310493  0.63978136
   0.23482232  0.40067521  0.72762427
   0.21743375  0.38441204  0.76778896
Direct configuration=     8
   0.16665362  0.33332012  0.38821289
   0.16667032  0.83334356  0.38821687
   0.66666572  0.33332302  0.38822259
   0.66667477  0.83334900  0.38821921
  -0.00068960 -0.00085564  0.61107405
  -0.00081193  0.50003117  0.61107552
   0.49995319 -0.00002382  0.61169918
   0.50061735  0.50025776  0.61132620
   0.33340364  0.16661381  0.50004747
   0.33342952  0.66679383  0.50001020
   0.83315858  0.16655513  0.50005400
   0.83331409  0.66668976  0.49997220
   0.16669076  0.33337112  0.47092104
   0.16662532  0.83328811  0.47092665
   0.66668962  0.33339489  0.47093111
   0.66665593  0.83327874  0.47092711
   0.00000386  0.00000948  0.36026648
   0.00001029  0.49999894  0.36026625
   0.49999709 -0.00000446  0.36026466
   0.49998732  0.49999935  0.36026685
   0.33476215  0.16645085  0.58282943
   0.33402441  0.66751174  0.58292651
   0.83076122  0.16572366  0.58268668
   0.83289583  0.66621963  0.58285556
  -0.00003453 -0.00010680  0.52891463
   0.00001173  0.50011183  0.52899055
   0.49989748 -0.00010842  0.52896377
   0.50009881  0.50009199  0.52906926
   0.33332109  0.16666732  0.41700138
   0.33332714  0.66665719  0.41700262
   0.83334812  0.16666936  0.41700117
   0.83333879  0.66667432  0.41700649
   0.15985184  0.32673443  0.63375628
   0.16711691  0.83316958  0.63995851
   0.66646449  0.33340623  0.63995092
   0.66600003  0.83290600  0.63992115
   0.23706584  0.40271160  0.72814221
   0.21649320  0.38355360  0.76823834
Direct configuration=     9
   0.16664583  0.33330936  0.38835634
   0.16667223  0.83335182  0.38836871
   0.66666330  0.33331495  0.38838115
   0.66668193  0.83336023  0.38837286
  -0.00164816 -0.00267790  0.61083161
  -0.00168470  0.50052300  0.61085000
   0.49981477 -0.00006741  0.61172388
   0.50149400  0.50057326  0.61112303
   0.33357160  0.16653621  0.50008680
   0.33359317  0.66702763  0.50002641
   0.83286105  0.16640368  0.50008578
   0.83326313  0.66667504  0.49994345
   0.16671804  0.33341446  0.47084068
   0.16660603  0.83324967  0.47083304
   0.66670257  0.33343663  0.47083732
   0.66663023  0.83323105  0.47083337
  -0.00000289 -0.00000611  0.35997795
   0.00000264  0.50000806  0.35997853
   0.49999526 -0.00000427  0.35997727
   0.50000200  0.50000628  0.35997939
   0.33573281  0.16622650  0.58287843
   0.33450825  0.66810067  0.58306935
   0.82881821  0.16494020  0.58260079
   0.83249248  0.66584720  0.58295158
  -0.00002841 -0.00011811  0.52884980
   0.00006258  0.50017324  0.52896402
   0.49979230 -0.00022637  0.52891390
   0.50011400  0.50014598  0.52910652
   0.33332373  0.16666011  0.41670586
   0.33332911  0.66666836  0.41671132
   0.83333861  0.16666564  0.41670468
   0.83334166  0.66667576  0.41670714
   0.15965104  0.32660891  0.63354820
   0.16729627  0.83303386  0.64023119
   0.66633889  0.33358118  0.64024974
   0.66558546  0.83250815  0.64020075
   0.24155289  0.40678438  0.72917810
   0.21461208  0.38183672  0.76913711
Direct configuration=    10
   0.16664620  0.33330899  0.38832051
   0.16668211  0.83335759  0.38832723
   0.66665781  0.33330542  0.38833946
   0.66667735  0.83336519  0.38832998
  -0.00177785 -0.00286426  0.61082229
  -0.00178164  0.50049017  0.61084631
   0.49976977 -0.00010759  0.61176438
   0.50143480  0.50052168  0.61113312
   0.33362188  0.16652356  0.50007062
   0.33362665  0.66707639  0.50001264
   0.83277991  0.16637244  0.50006515
   0.83324457  0.66665796  0.49987402
   0.16672962  0.33342562  0.47087708
   0.16657933  0.83323145  0.47086438
   0.66671189  0.33346873  0.47086967
   0.66663327  0.83320490  0.47086463
  -0.00000678 -0.00001340  0.35992596
  -0.00000122  0.50001184  0.35992699
   0.49999550 -0.00000398  0.35992568
   0.50000953  0.50001023  0.35992804
   0.33593451  0.16610943  0.58288377
   0.33461624  0.66827268  0.58309456
   0.82831571  0.16471122  0.58257581
   0.83241773  0.66578131  0.58296575
  -0.00004503 -0.00017057  0.52880741
   0.00005824  0.50021854  0.52892218
   0.49972462 -0.00028974  0.52884622
   0.50015630  0.50017842  0.52907283
   0.33332902  0.16665484  0.41665570
   0.33333545  0.66667998  0.41666113
   0.83332698  0.16665926  0.41665328
   0.83334109  0.66667654  0.41665908
   0.15964521  0.32661705  0.63358024
   0.16721600  0.83295730  0.64027529
   0.66636092  0.33370820  0.64031057
   0.66556918  0.83239083  0.64025016
   0.24275083  0.40784910  0.72962339
   0.21415830  0.38143067  0.76919051
Direct configuration=    11
   0.16664658  0.33330861  0.38828305
   0.16669244  0.83336363  0.38828386
   0.66665207  0.33329546  0.38829585
   0.66667257  0.83337037  0.38828514
  -0.00191349 -0.00305915  0.61081254
  -0.00188303  0.50045583  0.61084245
   0.49972271 -0.00014960  0.61180673
   0.50137288  0.50046774  0.61114366
   0.33367446  0.16651032  0.50005370
   0.33366166  0.66712739  0.49999824
   0.83269506  0.16633977  0.50004358
   0.83322516  0.66664010  0.49980142
   0.16674173  0.33343728  0.47091514
   0.16655141  0.83321241  0.47089716
   0.66672164  0.33350229  0.47090350
   0.66663645  0.83317755  0.47089732
  -0.00001085 -0.00002103  0.35987159
  -0.00000525  0.50001580  0.35987310
   0.49999576 -0.00000368  0.35987172
   0.50001740  0.50001435  0.35987435
   0.33614545  0.16598701  0.58288935
   0.33472918  0.66845258  0.58312093
   0.82779018  0.16447174  0.58254968
   0.83233956  0.66571240  0.58298058
  -0.00006243 -0.00022544  0.52876307
   0.00005369  0.50026591  0.52887843
   0.49965385 -0.00035602  0.52877543
   0.50020054  0.50021235  0.52903761
   0.33333454  0.16664934  0.41660323
   0.33334207  0.66669213  0.41660865
   0.83331482  0.16665259  0.41659952
   0.83334051  0.66667735  0.41660883
   0.15963912  0.32662557  0.63361376
   0.16713205  0.83287723  0.64032141
   0.66638396  0.33384105  0.64037418
   0.66555216  0.83226814  0.64030183
   0.24400365  0.40896261  0.73008908
   0.21368373  0.38100602  0.76924636
Direct configuration=    12
   0.16664725  0.33330899  0.38825343
   0.16669953  0.83336723  0.38824972
   0.66664803  0.33328880  0.38826103
   0.66666852  0.83337317  0.38824986
  -0.00195948 -0.00310504  0.61081679
  -0.00191131  0.50041192  0.61084989
   0.49969711 -0.00017596  0.61183264
   0.50129552  0.50041946  0.61115991
   0.33369959  0.16650506  0.50004212
   0.33367596  0.66714852  0.49998932
   0.83265423  0.16632534  0.50002913
   0.83321500  0.66662945  0.49975785
   0.16674787  0.33344244  0.47094138
   0.16653383  0.83320173  0.47092014
   0.66672718  0.33352174  0.47092731
   0.66663975  0.83316215  0.47092032
  -0.00001338 -0.00002544  0.35984803
  -0.00000783  0.50001780  0.35984980
   0.49999604 -0.00000344  0.35984825
   0.50002193  0.50001664  0.35985116
   0.33623725  0.16591648  0.58289082
   0.33477948  0.66854241  0.58313161
   0.82753724  0.16435161  0.58253677
   0.83230699  0.66568411  0.58298542
  -0.00007369 -0.00025941  0.52873789
   0.00004859  0.50029268  0.52885183
   0.49961086 -0.00039533  0.52873130
   0.50022692  0.50023088  0.52901344
   0.33333821  0.16664601  0.41658132
   0.33334637  0.66669965  0.41658649
   0.83330689  0.16664824  0.41657684
   0.83333973  0.66667755  0.41658820
   0.15963969  0.32663300  0.63364479
   0.16706607  0.83282981  0.64033964
   0.66640584  0.33392022  0.64040295
   0.66556178  0.83220674  0.64032347
   0.24471872  0.40959645  0.73024557
   0.21337170  0.38072635  0.76934957
Direct configuration=    13
   0.16664928  0.33331012  0.38816457
   0.16672083  0.83337802  0.38814730
   0.66663592  0.33326883  0.38815658
   0.66665639  0.83338158  0.38814402
  -0.00209747 -0.00324274  0.61082955
  -0.00199615  0.50028016  0.61087222
   0.49962033 -0.00025505  0.61191038
   0.50106342  0.50027465  0.61120864
   0.33377496  0.16648926  0.50000737
   0.33371887  0.66721192  0.49996257
   0.83253176  0.16628204  0.49998580
   0.83318451  0.66659747  0.49962713
   0.16676629  0.33345791  0.47102010
   0.16648108  0.83316968  0.47098908
   0.66674380  0.33358009  0.47099877
   0.66664968  0.83311595  0.47098931
  -0.00002099 -0.00003870  0.35977732
  -0.00001556  0.50002379  0.35977992
   0.49999687 -0.00000271  0.35977783
   0.50003550  0.50002350  0.35978158
   0.33651266  0.16570489  0.58289525
   0.33493037  0.66881193  0.58316364
   0.82677843  0.16399122  0.58249805
   0.83220928  0.66559924  0.58299996
  -0.00010748 -0.00036132  0.52866233
   0.00003331  0.50037300  0.52877203
   0.49948187 -0.00051326  0.52859892
   0.50030606  0.50028646  0.52894093
   0.33334920  0.16663602  0.41651559
   0.33335925  0.66672222  0.41652001
   0.83328311  0.16663519  0.41650879
   0.83333741  0.66667817  0.41652632
   0.15964139  0.32665528  0.63373786
   0.16686815  0.83268755  0.64039433
   0.66647148  0.33415774  0.64048927
   0.66559064  0.83202257  0.64038839
   0.24686392  0.41149798  0.73071505
   0.21243561  0.37988733  0.76965922
Direct configuration=    14
   0.16665333  0.33331239  0.38798687
   0.16676341  0.83339961  0.38794246
   0.66661169  0.33322889  0.38794766
   0.66663212  0.83339839  0.38793235
  -0.00237343 -0.00351813  0.61085506
  -0.00216585  0.50001666  0.61091688
   0.49946675 -0.00041321  0.61206585
   0.50059923  0.49998501  0.61130612
   0.33392569  0.16645767  0.49993789
   0.33380470  0.66733872  0.49990908
   0.83228683  0.16619544  0.49989913
   0.83312354  0.66653353  0.49936571
   0.16680314  0.33348885  0.47117754
   0.16637558  0.83310560  0.47112696
   0.66677705  0.33369678  0.47114167
   0.66666954  0.83302356  0.47112729
  -0.00003621 -0.00006521  0.35963592
  -0.00003103  0.50003577  0.35964017
   0.49999855 -0.00000125  0.35963700
   0.50006263  0.50003722  0.35964243
   0.33706348  0.16528171  0.58290411
   0.33523216  0.66935096  0.58322772
   0.82526081  0.16327043  0.58242062
   0.83201387  0.66542950  0.58302903
  -0.00017507 -0.00056513  0.52851122
   0.00000274  0.50053363  0.52861243
   0.49922390 -0.00074913  0.52833414
   0.50046434  0.50039762  0.52879592
   0.33337119  0.16661603  0.41638411
   0.33338502  0.66676735  0.41638706
   0.83323554  0.16660909  0.41637270
   0.83333278  0.66667942  0.41640256
   0.15964480  0.32669985  0.63392402
   0.16647229  0.83240302  0.64050370
   0.66660276  0.33463278  0.64066189
   0.66564835  0.83165423  0.64051822
   0.25115432  0.41530104  0.73165400
   0.21056344  0.37820930  0.77027852
Direct configuration=    15
   0.16666144  0.33331692  0.38763146
   0.16684857  0.83344278  0.38753278
   0.66656322  0.33314901  0.38752983
   0.66658358  0.83343201  0.38750899
  -0.00292535 -0.00406890  0.61090607
  -0.00250523  0.49948966  0.61100621
   0.49915960 -0.00072954  0.61237678
   0.49967086  0.49940574  0.61150106
   0.33422716  0.16639448  0.49979892
   0.33397635  0.66759232  0.49980208
   0.83179696  0.16602225  0.49972580
   0.83300160  0.66640564  0.49884286
   0.16687683  0.33355072  0.47149241
   0.16616457  0.83297743  0.47140272
   0.66684355  0.33393018  0.47142749
   0.66670925  0.83283878  0.47140326
  -0.00006664 -0.00011822  0.35935311
  -0.00006197  0.50005973  0.35936065
   0.50000189  0.00000166  0.35935532
   0.50011690  0.50006466  0.35936412
   0.33816512  0.16443535  0.58292182
   0.33583574  0.67042902  0.58335588
   0.82222555  0.16182886  0.58226575
   0.83162303  0.66509003  0.58308718
  -0.00031023 -0.00097277  0.52820899
  -0.00005840  0.50085490  0.52829323
   0.49870796 -0.00122085  0.52780459
   0.50078090  0.50061995  0.52850591
   0.33341517  0.16657606  0.41612116
   0.33343656  0.66685762  0.41612115
   0.83314041  0.16655689  0.41610051
   0.83332350  0.66668190  0.41615505
   0.15965161  0.32678897  0.63429634
   0.16568059  0.83183397  0.64072245
   0.66686532  0.33558285  0.64100714
   0.66576379  0.83091753  0.64077790
   0.25973512  0.42290715  0.73353191
   0.20681909  0.37485324  0.77151711
Direct configuration=    16
   0.16666439  0.33331857  0.38750197
   0.16687960  0.83345851  0.38738352
   0.66654556  0.33311990  0.38737761
   0.66656589  0.83344426  0.38735476
  -0.00312644 -0.00426957  0.61092466
  -0.00262887  0.49929766  0.61103876
   0.49904769 -0.00084479  0.61249007
   0.49933263  0.49919469  0.61157208
   0.33433700  0.16637146  0.49974829
   0.33403889  0.66768471  0.49976310
   0.83161848  0.16595914  0.49966266
   0.83295718  0.66635904  0.49865238
   0.16690368  0.33357326  0.47160713
   0.16608770  0.83293074  0.47150319
   0.66686778  0.33401521  0.47153162
   0.66672372  0.83277146  0.47150380
  -0.00007773 -0.00013754  0.35925007
  -0.00007324  0.50006846  0.35925881
   0.50000311  0.00000272  0.35925270
   0.50013668  0.50007465  0.35926273
   0.33856648  0.16412700  0.58292827
   0.33605564  0.67082179  0.58340256
   0.82111972  0.16130365  0.58220932
   0.83148064  0.66496635  0.58310837
  -0.00035948 -0.00112128  0.52809888
  -0.00008067  0.50097195  0.52817694
   0.49851999 -0.00139271  0.52761166
   0.50089623  0.50070095  0.52840025
   0.33343119  0.16656150  0.41602536
   0.33345534  0.66689051  0.41602427
   0.83310575  0.16653787  0.41600135
   0.83332013  0.66668281  0.41606487
   0.15965409  0.32682145  0.63443199
   0.16539214  0.83162665  0.64080215
   0.66696098  0.33592899  0.64113292
   0.66580585  0.83064914  0.64087251
   0.26286135  0.42567828  0.73421609
   0.20545491  0.37363054  0.77196836
Direct configuration=    17
   0.16668055  0.33333570  0.38739047
   0.16694399  0.83348204  0.38723213
   0.66650937  0.33306675  0.38720977
   0.66651777  0.83345614  0.38719166
  -0.00338307 -0.00453514  0.61093710
  -0.00283492  0.49910653  0.61107118
   0.49884438 -0.00104221  0.61260962
   0.49905093  0.49900054  0.61166457
   0.33436831  0.16634685  0.49972831
   0.33404122  0.66768957  0.49975862
   0.83149334  0.16589915  0.49961786
   0.83293074  0.66633746  0.49854308
   0.16690591  0.33356916  0.47166030
   0.16600072  0.83289034  0.47151464
   0.66688129  0.33406826  0.47155392
   0.66674864  0.83272707  0.47151914
  -0.00009316 -0.00016039  0.35911757
  -0.00009478  0.50007370  0.35912791
   0.50001026  0.00001122  0.35911333
   0.50016452  0.50008440  0.35913126
   0.33879369  0.16377276  0.58295237
   0.33616698  0.67112510  0.58345628
   0.82019786  0.16082783  0.58218345
   0.83137457  0.66487350  0.58311999
  -0.00039395 -0.00120980  0.52801749
  -0.00009825  0.50102437  0.52807572
   0.49825094 -0.00163400  0.52736694
   0.50092639  0.50072479  0.52829349
   0.33346792  0.16654492  0.41588474
   0.33348745  0.66694193  0.41588015
   0.83304369  0.16651042  0.41585866
   0.83330566  0.66667255  0.41590848
   0.15956711  0.32677999  0.63469660
   0.16486428  0.83133190  0.64087444
   0.66713669  0.33635704  0.64127561
   0.66601146  0.83039459  0.64096781
   0.26672348  0.42904770  0.73529665
   0.20393203  0.37228526  0.77231469
Direct configuration=    18
   0.16671598  0.33337326  0.38714597
   0.16708518  0.83353362  0.38690017
   0.66643001  0.33295020  0.38684174
   0.66641225  0.83348217  0.38683404
  -0.00394581 -0.00511748  0.61096439
  -0.00328674  0.49868745  0.61114228
   0.49839858 -0.00147510  0.61287177
   0.49843324  0.49857481  0.61186737
   0.33443696  0.16629289  0.49968449
   0.33404632  0.66770023  0.49974881
   0.83121894  0.16576760  0.49951964
   0.83287278  0.66629012  0.49830341
   0.16691081  0.33356018  0.47177689
   0.16581000  0.83280175  0.47153977
   0.66691092  0.33418457  0.47160284
   0.66680327  0.83262975  0.47155278
  -0.00012699 -0.00021050  0.35882703
  -0.00014201  0.50008518  0.35884086
   0.50002593  0.00002986  0.35880773
   0.50022558  0.50010578  0.35884297
   0.33929189  0.16299600  0.58300522
   0.33641113  0.67179019  0.58357407
   0.81817645  0.15978446  0.58212671
   0.83114198  0.66466992  0.58314548
  -0.00046954 -0.00140390  0.52783903
  -0.00013680  0.50113931  0.52785378
   0.49766097 -0.00216309  0.52683032
   0.50099253  0.50077706  0.52805939
   0.33354845  0.16650857  0.41557640
   0.33355786  0.66705467  0.41556414
   0.83290759  0.16645022  0.41554578
   0.83327394  0.66665006  0.41556555
   0.15937639  0.32668909  0.63527683
   0.16370680  0.83068559  0.64103294
   0.66752196  0.33729565  0.64158848
   0.66646232  0.82983644  0.64117679
   0.27519216  0.43643600  0.73766604
   0.20059272  0.36933541  0.77307411
Direct configuration=    19
   0.16673287  0.33339147  0.38719407
   0.16709709  0.83352932  0.38691825
   0.66641770  0.33294759  0.38683489
   0.66638676  0.83346529  0.38683922
  -0.00409844 -0.00535194  0.61093947
  -0.00352088  0.49874914  0.61112429
   0.49821280 -0.00162724  0.61285620
   0.49869414  0.49866574  0.61187950
   0.33428372  0.16627150  0.49970627
   0.33393185  0.66754055  0.49977121
   0.83129249  0.16575202  0.49952110
   0.83290084  0.66633497  0.49844580
   0.16683963  0.33349038  0.47162917
   0.16576745  0.83280349  0.47133850
   0.66689209  0.33411260  0.47141763
   0.66683201  0.83268130  0.47136075
  -0.00012584 -0.00019713  0.35875275
  -0.00015198  0.50006755  0.35876604
   0.50003647  0.00004344  0.35871183
   0.50021968  0.50009455  0.35876457
   0.33895157  0.16296507  0.58305820
   0.33618410  0.67155634  0.58360697
   0.81858251  0.15991915  0.58220169
   0.83116626  0.66468675  0.58312919
  -0.00043504 -0.00124274  0.52792668
  -0.00012578  0.50096559  0.52792212
   0.49753172 -0.00227572  0.52677573
   0.50077090  0.50063084  0.52810481
   0.33358007  0.16651497  0.41549012
   0.33357295  0.66706914  0.41547446
   0.83287070  0.16644301  0.41546296
   0.83324797  0.66662357  0.41543622
   0.15921918  0.32656120  0.63551304
   0.16328991  0.83052346  0.64102538
   0.66762521  0.33739084  0.64162287
   0.66671792  0.82986259  0.64118156
   0.27742415  0.43831234  0.73814713
   0.19962924  0.36850697  0.77326534
Direct configuration=    20
   0.16676971  0.33343117  0.38729896
   0.16712307  0.83351993  0.38695768
   0.66639088  0.33294190  0.38681997
   0.66633118  0.83342851  0.38685052
  -0.00443126 -0.00586318  0.61088514
  -0.00403142  0.49888367  0.61108508
   0.49780772 -0.00195899  0.61282225
   0.49926305  0.49886403  0.61190596
   0.33394957  0.16622486  0.49975374
   0.33368222  0.66719237  0.49982006
   0.83145289  0.16571807  0.49952428
   0.83296202  0.66643277  0.49875630
   0.16668443  0.33333818  0.47130706
   0.16567467  0.83280730  0.47089964
   0.66685101  0.33395565  0.47101377
   0.66689468  0.83279369  0.47094202
  -0.00012332 -0.00016799  0.35859078
  -0.00017373  0.50002911  0.35860288
   0.50005944  0.00007305  0.35850272
   0.50020682  0.50007006  0.35859360
   0.33820948  0.16289763  0.58317373
   0.33568904  0.67104643  0.58367871
   0.81946794  0.16021284  0.58236519
   0.83121919  0.66472345  0.58309369
  -0.00035980 -0.00089132  0.52811780
  -0.00010176  0.50058680  0.52807114
   0.49724987 -0.00252132  0.52665667
   0.50028764  0.50031199  0.52820384
   0.33364900  0.16652892  0.41530200
   0.33360586  0.66710070  0.41527891
   0.83279027  0.16642730  0.41528237
   0.83319134  0.66656581  0.41515421
   0.15887638  0.32628233  0.63602812
   0.16238087  0.83016993  0.64100890
   0.66785034  0.33759840  0.64169787
   0.66727528  0.82991962  0.64119198
   0.28229106  0.44240377  0.73919614
   0.19752834  0.36670054  0.77368232
Direct configuration=    21
   0.16677576  0.33343702  0.38731709
   0.16711045  0.83351024  0.38696206
   0.66639285  0.33295628  0.38681158
   0.66632913  0.83341339  0.38684823
  -0.00447927 -0.00591929  0.61088486
  -0.00414180  0.49889663  0.61108498
   0.49770984 -0.00203944  0.61280028
   0.49939738  0.49890856  0.61191739