CeO2                                    
           1
     7.707464    0.000000    0.000000
    -3.853732    6.674860    0.000000
     0.000000    0.000000   28.319031
   Ce   O    C    O 
  12  24   1   1
Direct configuration=     1
   0.16666700  0.33333300  0.38888900
   0.16666700  0.83333300  0.38888900
   0.66666700  0.33333300  0.38888900
   0.66666700  0.83333300  0.38888900
   0.00000000  0.00000000  0.61111100
   0.00000000  0.50000000  0.61111100
   0.50000000  0.00000000  0.61111100
   0.50000000  0.50000000  0.61111100
   0.33333300  0.16666700  0.50000000
   0.33333300  0.66666700  0.50000000
   0.83333300  0.16666700  0.50000000
   0.83333300  0.66666700  0.50000000
   0.16666700  0.33333300  0.47222200
   0.16666700  0.83333300  0.47222200
   0.66666700  0.33333300  0.47222200
   0.66666700  0.83333300  0.47222200
   0.00000000  0.00000000  0.36111100
   0.00000000  0.50000000  0.36111100
   0.50000000  0.00000000  0.36111100
   0.50000000  0.50000000  0.36111100
   0.33333300  0.16666700  0.58333300
   0.33333300  0.66666700  0.58333300
   0.83333300  0.16666700  0.58333300
   0.83333300  0.66666700  0.58333300
   0.00000000  0.00000000  0.52777800
   0.00000000  0.50000000  0.52777800
   0.50000000  0.00000000  0.52777800
   0.50000000  0.50000000  0.52777800
   0.33333300  0.16666700  0.41666700
   0.33333300  0.66666700  0.41666700
   0.83333300  0.16666700  0.41666700
   0.83333300  0.66666700  0.41666700
   0.16666700  0.33333300  0.63888900
   0.16666700  0.83333300  0.63888900
   0.66666700  0.33333300  0.63888900
   0.66666700  0.83333300  0.63888900
   0.38888900  0.44444400  0.72389500
   0.38888900  0.44444400  0.76422100
Direct configuration=     2
   0.16666697  0.33333299  0.38861644
   0.16666586  0.83333243  0.38861512
   0.66666805  0.33333472  0.38861646
   0.66666805  0.83333233  0.38861646
  -0.00009934  0.00010314  0.61127604
  -0.00009934  0.49979752  0.61127604
   0.50010993  0.00005497  0.61130896
   0.49959998  0.49979999  0.61188322
   0.33335871  0.16673036  0.50001142
   0.33335871  0.66662935  0.50001142
   0.83333959  0.16667029  0.50000383
   0.83327008  0.66663554  0.50001456
   0.16665144  0.33332522  0.47179098
   0.16666647  0.83333273  0.47179329
   0.66667482  0.33332546  0.47179227
   0.66667482  0.83334837  0.47179227
   0.00000088  0.00000214  0.36090130
   0.00000088  0.49999875  0.36090130
   0.50000032  0.00000016  0.36090105
   0.49999825  0.49999912  0.36090150
   0.33330258  0.16655954  0.58311733
   0.33330258  0.66674404  0.58311733
   0.83324010  0.16662055  0.58311489
   0.83347126  0.66673613  0.58311794
  -0.00000608 -0.00000464  0.52820811
  -0.00000608  0.49999856  0.52820811
   0.50000624  0.00000312  0.52821065
   0.50001278  0.50000639  0.52814760
   0.33333234  0.16666850  0.41688101
   0.33333234  0.66666484  0.41688101
   0.83333549  0.16666824  0.41688180
   0.83333316  0.66666708  0.41688118
   0.16409288  0.33204594  0.63866646
   0.16672165  0.83336032  0.63918362
   0.66692689  0.33310010  0.63910216
   0.66692689  0.83382579  0.63910216
   0.39299657  0.44649778  0.72367293
   0.38728130  0.44364015  0.76459777
Direct configuration=     3
   0.16666697  0.33333298  0.38856147
   0.16666563  0.83333232  0.38855987
   0.66666826  0.33333507  0.38856149
   0.66666826  0.83333219  0.38856149
  -0.00011938  0.00012394  0.61130933
  -0.00011938  0.49975668  0.61130933
   0.50013211  0.00006605  0.61134889
   0.49951929  0.49975965  0.61203898
   0.33336390  0.16674314  0.50001372
   0.33336390  0.66662176  0.50001372
   0.83334092  0.16667096  0.50000460
   0.83325738  0.66662919  0.50001750
   0.16664830  0.33332365  0.47170404
   0.16666636  0.83333268  0.47170681
   0.66667640  0.33332393  0.47170559
   0.66667640  0.83335147  0.47170559
   0.00000106  0.00000257  0.36085900
   0.00000106  0.49999849  0.36085900
   0.50000039  0.00000019  0.36085870
   0.49999789  0.49999895  0.36085924
   0.33329645  0.16653787  0.58307383
   0.33329645  0.66675958  0.58307383
   0.83322136  0.16661118  0.58307089
   0.83349915  0.66675008  0.58307456
  -0.00000731 -0.00000558  0.52829486
  -0.00000731  0.49999826  0.52829486
   0.50000750  0.00000375  0.52829792
   0.50001536  0.50000768  0.52822216
   0.33333220  0.16666880  0.41692418
   0.33333220  0.66666440  0.41692418
   0.83333599  0.16666849  0.41692512
   0.83333319  0.66666709  0.41692439
   0.16357366  0.33178633  0.63862158
   0.16673267  0.83336584  0.63924305
   0.66697931  0.33305312  0.63914516
   0.66697931  0.83392518  0.63914516
   0.39382510  0.44691205  0.72362814
   0.38695701  0.44347800  0.76467377
Direct configuration=     4
   0.16666714  0.33333307  0.38851678
   0.16666539  0.83333220  0.38851515
   0.66666829  0.33333545  0.38851687
   0.66666829  0.83333184  0.38851687
  -0.00014229  0.00012579  0.61133386
  -0.00014229  0.49973192  0.61133386
   0.50014399  0.00007200  0.61138030
   0.49945815  0.49972907  0.61216678
   0.33337141  0.16675900  0.50001514
   0.33337141  0.66661341  0.50001514
   0.83334097  0.16667098  0.50000401
   0.83324112  0.66662106  0.50001995
   0.16664406  0.33332153  0.47162911
   0.16666651  0.83333276  0.47163246
   0.66667833  0.33332158  0.47163082
   0.66667833  0.83335575  0.47163082
   0.00000112  0.00000289  0.36081927
   0.00000112  0.49999824  0.36081927
   0.50000045  0.00000023  0.36081895
   0.49999760  0.49999880  0.36081954
   0.33329644  0.16652889  0.58304281
   0.33329644  0.66676855  0.58304281
   0.83319596  0.16659848  0.58303514
   0.83351152  0.66675626  0.58304305
  -0.00000841 -0.00000521  0.52836947
  -0.00000841  0.49999680  0.52836947
   0.50000874  0.00000437  0.52837320
   0.50001631  0.50000815  0.52828956
   0.33333211  0.16666911  0.41695703
   0.33333211  0.66666400  0.41695703
   0.83333633  0.16666867  0.41695813
   0.83333306  0.66666703  0.41695721
   0.16312810  0.33156355  0.63858777
   0.16674481  0.83337190  0.63929782
   0.66701844  0.33301412  0.63918643
   0.66701844  0.83400332  0.63918643
   0.39457280  0.44728590  0.72369596
   0.38667414  0.44333657  0.76463173
Direct configuration=     5
   0.16666760  0.33333330  0.38839554
   0.16666474  0.83333187  0.38839380
   0.66666837  0.33333647  0.38839581
   0.66666837  0.83333089  0.38839581
  -0.00020447  0.00013079  0.61140039
  -0.00020447  0.49966474  0.61140039
   0.50017623  0.00008811  0.61146551
   0.49929227  0.49964613  0.61251347
   0.33339178  0.16680202  0.50001900
   0.33339178  0.66659076  0.50001900
   0.83334110  0.16667105  0.50000239
   0.83319699  0.66659899  0.50002660
   0.16663254  0.33331577  0.47142584
   0.16666692  0.83333296  0.47143074
   0.66668354  0.33331518  0.47142800
   0.66668354  0.83336737  0.47142800
   0.00000130  0.00000376  0.36071150
   0.00000130  0.49999754  0.36071150
   0.50000064  0.00000032  0.36071112
   0.49999680  0.49999840  0.36071185
   0.33329641  0.16650452  0.58295866
   0.33329641  0.66679289  0.58295866
   0.83312706  0.16656403  0.58293815
   0.83354508  0.66677304  0.58295757
  -0.00001139 -0.00000422  0.52857187
  -0.00001139  0.49999283  0.52857187
   0.50001210  0.00000605  0.52857741
   0.50001889  0.50000945  0.52847242
   0.33333185  0.16666993  0.41704615
   0.33333185  0.66666292  0.41704615
   0.83333728  0.16666914  0.41704768
   0.83333273  0.66666686  0.41704626
   0.16191932  0.33095916  0.63849604
   0.16677774  0.83338837  0.63944640
   0.66712460  0.33290831  0.63929840
   0.66712460  0.83421530  0.63929840
   0.39660129  0.44830015  0.72387995
   0.38590672  0.44295286  0.76451768
Direct configuration=     6
   0.16666853  0.33333377  0.38815307
   0.16666344  0.83333122  0.38815111
   0.66666852  0.33333852  0.38815371
   0.66666852  0.83332900  0.38815371
  -0.00032882  0.00014078  0.61153345
  -0.00032882  0.49953039  0.61153345
   0.50024070  0.00012035  0.61163593
   0.49896051  0.49948025  0.61320686
   0.33343252  0.16688806  0.50002671
   0.33343252  0.66654545  0.50002671
   0.83334136  0.16667118  0.49999917
   0.83310873  0.66655487  0.50003990
   0.16660949  0.33330425  0.47101929
   0.16666774  0.83333337  0.47102730
   0.66669398  0.33330238  0.47102235
   0.66669398  0.83339060  0.47102235
   0.00000165  0.00000551  0.36049596
   0.00000165  0.49999614  0.36049596
   0.50000101  0.00000050  0.36049545
   0.49999519  0.49999760  0.36049646
   0.33329635  0.16645580  0.58279036
   0.33329635  0.66684156  0.58279036
   0.83298927  0.16649513  0.58274417
   0.83361219  0.66680660  0.58278661
  -0.00001734 -0.00000223  0.52897667
  -0.00001734  0.49998489  0.52897667
   0.50001881  0.00000941  0.52898584
   0.50002406  0.50001203  0.52883814
   0.33333132  0.16667158  0.41722439
   0.33333132  0.66666074  0.41722439
   0.83333917  0.16667008  0.41722677
   0.83333205  0.66666652  0.41722437
   0.15950177  0.32975038  0.63831260
   0.16684361  0.83342130  0.63974355
   0.66733693  0.33269668  0.63952235
   0.66733693  0.83463925  0.63952235
   0.40065826  0.45032863  0.72424794
   0.38437188  0.44218544  0.76428957
Direct configuration=     7
   0.16666825  0.33333363  0.38822583
   0.16666383  0.83333141  0.38822393
   0.66666847  0.33333791  0.38822636
   0.66666847  0.83332957  0.38822636
  -0.00029151  0.00013778  0.61149352
  -0.00029151  0.49957071  0.61149352
   0.50022135  0.00011067  0.61158479
   0.49906006  0.49953003  0.61299879
   0.33342029  0.16686225  0.50002440
   0.33342029  0.66655905  0.50002440
   0.83334128  0.16667114  0.50000013
   0.83313522  0.66656811  0.50003591
   0.16661641  0.33330770  0.47114128
   0.16666749  0.83333325  0.47114836
   0.66669085  0.33330622  0.47114407
   0.66669085  0.83338363  0.47114407
   0.00000154  0.00000498  0.36056064
   0.00000154  0.49999656  0.36056064
   0.50000090  0.00000045  0.36056017
   0.49999567  0.49999784  0.36056109
   0.33329637  0.16647042  0.58284086
   0.33329637  0.66682695  0.58284086
   0.83303061  0.16651581  0.58280238
   0.83359206  0.66679653  0.58283791
  -0.00001555 -0.00000282  0.52885520
  -0.00001555  0.49998727  0.52885520
   0.50001680  0.00000840  0.52886328
   0.50002251  0.50001126  0.52872840
   0.33333148  0.16667109  0.41717091
   0.33333148  0.66666140  0.41717091
   0.83333860  0.16666980  0.41717303
   0.83333225  0.66666663  0.41717092
   0.16022721  0.33011310  0.63836764
   0.16682384  0.83341142  0.63965438
   0.66727322  0.33276018  0.63945515
   0.66727322  0.83451204  0.63945515
   0.39944088  0.44971994  0.72413752
   0.38483244  0.44241572  0.76435802
Direct configuration=     8
   0.16666931  0.33333416  0.38822842
   0.16666381  0.83333140  0.38822780
   0.66666812  0.33333857  0.38822917
   0.66666812  0.83332854  0.38822917
  -0.00031894  0.00007285  0.61148155
  -0.00031894  0.49960821  0.61148155
   0.50019373  0.00009686  0.61157858
   0.49907770  0.49953885  0.61299342
   0.33343413  0.16688541  0.50002338
   0.33343413  0.66654972  0.50002338
   0.83333731  0.16666916  0.49999569
   0.83311070  0.66655585  0.50003649
   0.16661057  0.33330479  0.47113236
   0.16666836  0.83333368  0.47114033
   0.66669340  0.33330252  0.47113493
   0.66669340  0.83338988  0.47113493
   0.00000146  0.00000518  0.36054087
   0.00000146  0.49999628  0.36054087
   0.50000134  0.00000067  0.36054044
   0.49999580  0.49999790  0.36054132
   0.33331912  0.16651028  0.58286575
   0.33331912  0.66680983  0.58286575
   0.83298348  0.16649224  0.58280708
   0.83354460  0.66677280  0.58286011
  -0.00001516  0.00000109  0.52886241
  -0.00001516  0.49998375  0.52886241
   0.50001572  0.00000786  0.52887151
   0.50001793  0.50000897  0.52874915
   0.33333217  0.16667231  0.41715480
   0.33333217  0.66666086  0.41715480
   0.83333876  0.16666988  0.41715692
   0.83333113  0.66666606  0.41715469
   0.16018302  0.33009101  0.63838368
   0.16683581  0.83341741  0.63967746
   0.66725188  0.33276354  0.63947973
   0.66725188  0.83448735  0.63947973
   0.39976183  0.44988041  0.72414371
   0.38470476  0.44235188  0.76435168
Direct configuration=     9
   0.16667250  0.33333575  0.38823617
   0.16666374  0.83333137  0.38823939
   0.66666704  0.33334057  0.38823759
   0.66666704  0.83332547  0.38823759
  -0.00040123 -0.00012193  0.61144566
  -0.00040123  0.49972070  0.61144566
   0.50011086  0.00005543  0.61155995
   0.49913062  0.49956531  0.61297730
   0.33347562  0.16695490  0.50002031
   0.33347562  0.66652173  0.50002031
   0.83332540  0.16666320  0.49998237
   0.83303714  0.66651907  0.50003822
   0.16659307  0.33329603  0.47110558
   0.16667097  0.83333498  0.47111624
   0.66670105  0.33329142  0.47110751
   0.66670105  0.83340863  0.47110751
   0.00000119  0.00000577  0.36048156
   0.00000119  0.49999542  0.36048156
   0.50000266  0.00000133  0.36048126
   0.49999616  0.49999808  0.36048199
   0.33338735  0.16662988  0.58294041
   0.33338735  0.66675848  0.58294041
   0.83284208  0.16642154  0.58282118
   0.83340225  0.66670163  0.58292671
  -0.00001399  0.00001284  0.52888404
  -0.00001399  0.49997317  0.52888404
   0.50001250  0.00000625  0.52889618
   0.50000420  0.50000210  0.52881140
   0.33333422  0.16667597  0.41710647
   0.33333422  0.66665925  0.41710647
   0.83333926  0.16667013  0.41710858
   0.83332775  0.66666438  0.41710600
   0.16005045  0.33002472  0.63843181
   0.16687171  0.83343536  0.63974668
   0.66718788  0.33277360  0.63955348
   0.66718788  0.83441328  0.63955348
   0.40072468  0.45036184  0.72416227
   0.38432171  0.44216036  0.76433268
Direct configuration=    10
   0.16667887  0.33333893  0.38825169
   0.16666361  0.83333130  0.38826257
   0.66666490  0.33334456  0.38825443
   0.66666490  0.83331933  0.38825443
  -0.00056582 -0.00051151  0.61137386
  -0.00056582  0.49994569  0.61137386
   0.49994514 -0.00002743  0.61152269
   0.49923647  0.49961824  0.61294505
   0.33355862  0.16709388  0.50001418
   0.33355862  0.66646575  0.50001418
   0.83330156  0.16665128  0.49995573
   0.83289002  0.66644551  0.50004169
   0.16655805  0.33327853  0.47105203
   0.16667618  0.83333759  0.47106806
   0.66671636  0.33326922  0.47105266
   0.66671636  0.83344614  0.47105266
   0.00000067  0.00000696  0.36036294
   0.00000067  0.49999371  0.36036294
   0.50000530  0.00000265  0.36036289
   0.49999690  0.49999845  0.36036334
   0.33352383  0.16686907  0.58308972
   0.33352383  0.66665576  0.58308972
   0.83255928  0.16628014  0.58284939
   0.83311755  0.66655928  0.58305991
  -0.00001164  0.00003634  0.52892729
  -0.00001164  0.49995202  0.52892729
   0.50000605  0.00000302  0.52894552
   0.49997672  0.49998836  0.52893591
   0.33333833  0.16668331  0.41700980
   0.33333833  0.66665602  0.41700980
   0.83334025  0.16667062  0.41701192
   0.83332101  0.66666100  0.41700862
   0.15978530  0.32989215  0.63852806
   0.16694352  0.83347126  0.63988512
   0.66705986  0.33279372  0.63970096
   0.66705986  0.83426515  0.63970096
   0.40265039  0.45132469  0.72419941
   0.38355561  0.44177731  0.76429467
Direct configuration=    11
   0.16669161  0.33334531  0.38828271
   0.16666334  0.83333117  0.38830894
   0.66666061  0.33335255  0.38828812
   0.66666061  0.83330706  0.38828812
  -0.00089499 -0.00129066  0.61123028
  -0.00089499  0.50039567  0.61123028
   0.49961368 -0.00019316  0.61144815
   0.49944817  0.49972409  0.61288057
   0.33372462  0.16737183  0.50000192
   0.33372462  0.66635379  0.50000192
   0.83325390  0.16662745  0.49990244
   0.83259579  0.66629840  0.50004864
   0.16648802  0.33324351  0.47094493
   0.16668660  0.83334280  0.47097169
   0.66674697  0.33322483  0.47094298
   0.66674697  0.83352114  0.47094298
  -0.00000039  0.00000932  0.36012571
  -0.00000039  0.49999029  0.36012571
   0.50001059  0.00000530  0.36012616
   0.49999837  0.49999919  0.36012604
   0.33379678  0.16734744  0.58338836
   0.33379678  0.66645034  0.58338836
   0.83199368  0.16599734  0.58290580
   0.83254815  0.66627457  0.58332632
  -0.00000695  0.00008334  0.52901378
  -0.00000695  0.49990971  0.52901378
   0.49999315 -0.00000343  0.52904419
   0.49992178  0.49996089  0.52918492
   0.33334655  0.16669797  0.41681648
   0.33334655  0.66664958  0.41681648
   0.83334223  0.16667161  0.41681859
   0.83330751  0.66665426  0.41681386
   0.15925501  0.32962701  0.63872056
   0.16708714  0.83354307  0.64016200
   0.66680383  0.33283396  0.63999594
   0.66680383  0.83396888  0.63999594
   0.40650180  0.45325040  0.72427369
   0.38202342  0.44101121  0.76421866
Direct configuration=    12
   0.16668701  0.33334301  0.38820325
   0.16666104  0.83333002  0.38824911
   0.66666500  0.33335324  0.38820710
   0.66666500  0.83331075  0.38820710
  -0.00101345 -0.00131890  0.61130898
  -0.00101345  0.50030545  0.61130898
   0.49958766 -0.00020617  0.61153579
   0.49935361  0.49967680  0.61296521
   0.33374481  0.16737969  0.50002330
   0.33374481  0.66636612  0.50002330
   0.83321226  0.16660663  0.49991414
   0.83257060  0.66628580  0.50003918
   0.16651537  0.33325719  0.47098345
   0.16667288  0.83333594  0.47101899
   0.66673802  0.33325100  0.47098272
   0.66673802  0.83348602  0.47098272
  -0.00000281  0.00001118  0.36005499
  -0.00000281  0.49998602  0.36005499
   0.50001638  0.00000819  0.36005579
   0.49999990  0.49999995  0.36005408
   0.33385566  0.16746181  0.58346797
   0.33385566  0.66639485  0.58346797
   0.83171228  0.16585664  0.58289191
   0.83234604  0.66617352  0.58339214
   0.00000573  0.00002634  0.52894867
   0.00000573  0.49997939  0.52894867
   0.49988154 -0.00005923  0.52897540
   0.49993221  0.49996610  0.52917608
   0.33336086  0.16672315  0.41675433
   0.33336086  0.66663871  0.41675433
   0.83334072  0.16667086  0.41674633
   0.83328175  0.66664137  0.41675476
   0.15919295  0.32959598  0.63881516
   0.16706321  0.83353111  0.64022450
   0.66672840  0.33288808  0.64008537
   0.66672840  0.83383932  0.64008537
   0.40827039  0.45413469  0.72424726
   0.38131577  0.44065739  0.76420660
Direct configuration=    13
   0.16667570  0.33333735  0.38800781
   0.16665537  0.83332718  0.38810195
   0.66667579  0.33335494  0.38800782
   0.66667579  0.83331985  0.38800782
  -0.00130478 -0.00138835  0.61150256
  -0.00130478  0.50008357  0.61150256
   0.49952367 -0.00023816  0.61175131
   0.49912104  0.49956052  0.61317337
   0.33379447  0.16739901  0.50007590
   0.33379447  0.66639646  0.50007590
   0.83310985  0.16655543  0.49994291
   0.83250864  0.66625482  0.50001592
   0.16658265  0.33329082  0.47107818
   0.16663916  0.83331908  0.47113530
   0.66671601  0.33331538  0.47108047
   0.66671601  0.83339963  0.47108047
  -0.00000876  0.00001573  0.35988107
  -0.00000876  0.49997550  0.35988107
   0.50003060  0.00001530  0.35988273
   0.50000365  0.50000182  0.35987708
   0.33400045  0.16774309  0.58366378
   0.33400045  0.66625837  0.58366378
   0.83102020  0.16551060  0.58285775
   0.83184898  0.66592499  0.58355400
   0.00003692 -0.00011386  0.52878851
   0.00003692  0.50015078  0.52878851
   0.49960704 -0.00019648  0.52880622
   0.49995786  0.49997893  0.52915434
   0.33339605  0.16678506  0.41660150
   0.33339605  0.66661200  0.41660150
   0.83333700  0.16666900  0.41656860
   0.83321838  0.66660969  0.41660942
   0.15904032  0.32951966  0.63904783
   0.16700437  0.83350168  0.64037821
   0.66654288  0.33302119  0.64030532
   0.66654288  0.83352070  0.64030532
   0.41262008  0.45630954  0.72418226
   0.37957537  0.43978718  0.76417693
Direct configuration=    14
   0.16667039  0.33333470  0.38791617
   0.16665271  0.83332586  0.38803295
   0.66668085  0.33335574  0.38791438
   0.66668085  0.83332411  0.38791438
  -0.00144139 -0.00142092  0.61159332
  -0.00144139  0.49997953  0.61159332
   0.49949367 -0.00025317  0.61185237
   0.49901199  0.49950599  0.61327098
   0.33381775  0.16740806  0.50010056
   0.33381775  0.66641069  0.50010056
   0.83306183  0.16653141  0.49995641
   0.83247958  0.66624029  0.50000501
   0.16661419  0.33330659  0.47112260
   0.16662334  0.83331117  0.47118984
   0.66670569  0.33334557  0.47112631
   0.66670569  0.83335912  0.47112631
  -0.00001155  0.00001787  0.35979952
  -0.00001155  0.49997058  0.35979952
   0.50003727  0.00001864  0.35980158
   0.50000541  0.50000270  0.35979409
   0.33406835  0.16787498  0.58375559
   0.33406835  0.66619437  0.58375559
   0.83069568  0.16534834  0.58284173
   0.83161591  0.66580846  0.58362990
   0.00005155 -0.00017960  0.52871341
   0.00005155  0.50023115  0.52871341
   0.49947833 -0.00026083  0.52872689
   0.49996989  0.49998494  0.52914415
   0.33341255  0.16681408  0.41652984
   0.33341255  0.66659947  0.41652984
   0.83333526  0.16666813  0.41648527
   0.83318867  0.66659484  0.41654127
   0.15896875  0.32948388  0.63915693
   0.16697677  0.83348789  0.64045029
   0.66645589  0.33308360  0.64040845
   0.66645589  0.83337129  0.64040845
   0.41465967  0.45732933  0.72415178
   0.37875928  0.43937914  0.76416302
Direct configuration=    15
   0.16666961  0.33333430  0.38789757
   0.16665281  0.83332591  0.38801891
   0.66668138  0.33335539  0.38789520
   0.66668138  0.83332499  0.38789520
  -0.00146826 -0.00142457  0.61161220
  -0.00146826  0.49995631  0.61161220
   0.49948710 -0.00025645  0.61187313
   0.49898942  0.49949471  0.61329155
   0.33382056  0.16740806  0.50010500
   0.33382056  0.66641350  0.50010500
   0.83305263  0.16652681  0.49995810
   0.83247574  0.66623837  0.50000230
   0.16662113  0.33331006  0.47113189
   0.16662000  0.83330950  0.47120082
   0.66670305  0.33335182  0.47113577
   0.66670305  0.83335023  0.47113577
  -0.00001214  0.00001799  0.35978314
  -0.00001214  0.49996986  0.35978314
   0.50003843  0.00001921  0.35978528
   0.50000596  0.50000298  0.35977729
   0.33407836  0.16789685  0.58377377
   0.33407836  0.66618251  0.58377377
   0.83063202  0.16531651  0.58283941
   0.83157303  0.66578701  0.58364493
   0.00005473 -0.00019343  0.52869900
   0.00005473  0.50024816  0.52869900
   0.49944977 -0.00027512  0.52871115
   0.49997196  0.49998598  0.52914109
   0.33341594  0.16681973  0.41651568
   0.33341594  0.66659721  0.41651568
   0.83333461  0.16666781  0.41646871
   0.83318272  0.66659186  0.41652770
   0.15895434  0.32947667  0.63918013
   0.16696835  0.83348368  0.64046402
   0.66644129  0.33309462  0.64042905
   0.66644129  0.83334566  0.64042905
   0.41505201  0.45752551  0.72416980
   0.37861655  0.43930777  0.76413458
Direct configuration=    16
   0.16666725  0.33333313  0.38784179
   0.16665311  0.83332605  0.38797680
   0.66668298  0.33335436  0.38783765
   0.66668298  0.83332762  0.38783765
  -0.00154886 -0.00143552  0.61166884
  -0.00154886  0.49988665  0.61166884
   0.49946740 -0.00026630  0.61193538
   0.49892170  0.49946085  0.61335328
   0.33382897  0.16740806  0.50011829
   0.33382897  0.66642191  0.50011829
   0.83302502  0.16651301  0.49996318
   0.83246420  0.66623260  0.49999419
   0.16664195  0.33332047  0.47115977
   0.16660998  0.83330449  0.47123377
   0.66669513  0.33337059  0.47116415
   0.66669513  0.83332354  0.47116415
  -0.00001392  0.00001836  0.35973401
  -0.00001392  0.49996773  0.35973401
   0.50004189  0.00002095  0.35973636
   0.50000763  0.50000382  0.35972691
   0.33410839  0.16796246  0.58382831
   0.33410839  0.66614693  0.58382831
   0.83044105  0.16522102  0.58283243
   0.83144438  0.66572269  0.58369003
   0.00006427 -0.00023492  0.52865577
   0.00006427  0.50029919  0.52865577
   0.49936407 -0.00031796  0.52866394
   0.49997817  0.49998909  0.52913192
   0.33342610  0.16683667  0.41647321
   0.33342610  0.66659044  0.41647321
   0.83333268  0.16666684  0.41641904
   0.83316488  0.66658294  0.41648700
   0.15891109  0.32945505  0.63924972
   0.16694309  0.83347105  0.64050523
   0.66639747  0.33312768  0.64049085
   0.66639747  0.83326879  0.64049085
   0.41622906  0.45811403  0.72422387
   0.37818833  0.43909366  0.76404927
Direct configuration=    17
   0.16666254  0.33333077  0.38773021
   0.16665370  0.83332635  0.38789259
   0.66668618  0.33335230  0.38772256
   0.66668618  0.83333288  0.38772256
  -0.00171008 -0.00145742  0.61178211
  -0.00171008  0.49974734  0.61178211
   0.49942799 -0.00028601  0.61205989
   0.49878627  0.49939313  0.61347673
   0.33384579  0.16740805  0.50014489
   0.33384579  0.66643875  0.50014489
   0.83296980  0.16648540  0.49997335
   0.83244113  0.66622106  0.49997795
   0.16668359  0.33334129  0.47121552
   0.16658994  0.83329447  0.47129966
   0.66667929  0.33340812  0.47122091
   0.66667929  0.83327017  0.47122091
  -0.00001746  0.00001908  0.35963574
  -0.00001746  0.49996346  0.35963574
   0.50004882  0.00002441  0.35963852
   0.50001097  0.50000548  0.35962613
   0.33416846  0.16809368  0.58393737
   0.33416846  0.66607578  0.58393737
   0.83005911  0.16503005  0.58281847
   0.83118708  0.66559404  0.58378022
   0.00008334 -0.00031790  0.52856932
   0.00008334  0.50040125  0.52856932
   0.49919269 -0.00040366  0.52856951
   0.49999060  0.49999530  0.52911358
   0.33344643  0.16687054  0.41638826
   0.33344643  0.66657689  0.41638826
   0.83332881  0.16666491  0.41631969
   0.83312918  0.66656509  0.41640559
   0.15882459  0.32941180  0.63938892
   0.16689257  0.83344579  0.64058765
   0.66630984  0.33319380  0.64061444
   0.66630984  0.83311503  0.64061444
   0.41858315  0.45929107  0.72433200
   0.37733189  0.43866545  0.76387865
Direct configuration=    18
   0.16665311  0.33332606  0.38750707
   0.16665488  0.83332694  0.38772415
   0.66669259  0.33334818  0.38749236
   0.66669259  0.83334341  0.38749236
  -0.00203251 -0.00150123  0.61200865
  -0.00203251  0.49946872  0.61200865
   0.49934916 -0.00032542  0.61230891
   0.49851540  0.49925770  0.61372364
   0.33387944  0.16740802  0.50019808
   0.33387944  0.66647242  0.50019808
   0.83285936  0.16643018  0.49999368
   0.83239498  0.66619799  0.49994549
   0.16676687  0.33338293  0.47132701
   0.16654985  0.83327443  0.47143145
   0.66664761  0.33348319  0.47133442
   0.66664761  0.83316342  0.47133442
  -0.00002455  0.00002054  0.35943919
  -0.00002455  0.49995491  0.35943919
   0.50006269  0.00003134  0.35944284
   0.50001764  0.50000882  0.35942459
   0.33428859  0.16835613  0.58415551
   0.33428859  0.66593346  0.58415551
   0.82929523  0.16464811  0.58279055
   0.83067247  0.66533674  0.58396062
   0.00012150 -0.00048387  0.52839640
   0.00012150  0.50060537  0.52839640
   0.49884992 -0.00057504  0.52838066
   0.50001545  0.50000772  0.52907690
   0.33348708  0.16693829  0.41621838
   0.33348708  0.66654978  0.41621838
   0.83332107  0.16666104  0.41612099
   0.83305780  0.66652940  0.41624276
   0.15865160  0.32932530  0.63966730
   0.16679153  0.83339526  0.64075248
   0.66613457  0.33332604  0.64086162
   0.66613457  0.83280752  0.64086162
   0.42329132  0.46164516  0.72454826
   0.37561902  0.43780901  0.76353741
Direct configuration=    19
   0.16665767  0.33332834  0.38752987
   0.16666072  0.83332986  0.38774209
   0.66668713  0.33334447  0.38751374
   0.66668713  0.83334166  0.38751374
  -0.00200799 -0.00150214  0.61198508
  -0.00200799  0.49949415  0.61198508
   0.49933683 -0.00033158  0.61228415
   0.49854638  0.49927319  0.61370464
   0.33386467  0.16740359  0.50018735
   0.33386467  0.66646208  0.50018735
   0.83287319  0.16643709  0.49997932
   0.83240538  0.66620319  0.49994492
   0.16675989  0.33337944  0.47131373
   0.16655308  0.83327604  0.47141255
   0.66664684  0.33347412  0.47131958
   0.66664684  0.83317172  0.47131958
  -0.00002410  0.00001758  0.35945033
  -0.00002410  0.49995833  0.35945033
   0.50005979  0.00002989  0.35945370
   0.50001902  0.50000951  0.35943480
   0.33424914  0.16829900  0.58414117
   0.33424914  0.66595114  0.58414117
   0.82937184  0.16468642  0.58280578
   0.83074646  0.66537373  0.58394994
   0.00011867 -0.00046864  0.52842599
   0.00011867  0.50058732  0.52842599
   0.49886207 -0.00056896  0.52840772
   0.50000624  0.50000312  0.52908115
   0.33348380  0.16692988  0.41623086
   0.33348380  0.66655492  0.41623086
   0.83331919  0.16666010  0.41613613
   0.83306518  0.66653309  0.41625315
   0.15864822  0.32932361  0.63965811
   0.16677874  0.83338887  0.64073939
   0.66617314  0.33329586  0.64084625
   0.66617314  0.83287628  0.64084625
   0.42293400  0.46146650  0.72457695
   0.37579149  0.43789525  0.76350725
Direct configuration=    20
   0.16666172  0.33333036  0.38755007
   0.16666589  0.83333245  0.38775797
   0.66668229  0.33334119  0.38753267
   0.66668229  0.83334010  0.38753267
  -0.00198627 -0.00150295  0.61196420
  -0.00198627  0.49951668  0.61196420
   0.49932591 -0.00033704  0.61226221
   0.49857381  0.49928691  0.61368781
   0.33385158  0.16739966  0.50017784
   0.33385158  0.66645292  0.50017784
   0.83288544  0.16644322  0.49996660
   0.83241460  0.66620780  0.49994441
   0.16675371  0.33337635  0.47130197
   0.16655594  0.83327747  0.47139581
   0.66664615  0.33346609  0.47130643
   0.66664615  0.83317907  0.47130643
  -0.00002370  0.00001495  0.35946019
  -0.00002370  0.49996136  0.35946019
   0.50005722  0.00002861  0.35946331
   0.50002024  0.50001012  0.35944384
   0.33421419  0.16824839  0.58412848
   0.33421419  0.66596680  0.58412848
   0.82943970  0.16472035  0.58281926
   0.83081201  0.66540650  0.58394048
   0.00011617 -0.00045515  0.52845220
   0.00011617  0.50057132  0.52845220
   0.49887284 -0.00056358  0.52843169
   0.49999809  0.49999905  0.52908490
   0.33348090  0.16692242  0.41624192
   0.33348090  0.66655948  0.41624192
   0.83331753  0.16665926  0.41614953
   0.83307172  0.66653636  0.41626235
   0.15864523  0.32932212  0.63964998
   0.16676741  0.83338321  0.64072780
   0.66620730  0.33326911  0.64083264
   0.66620730  0.83293719  0.64083264
   0.42261748  0.46130824  0.72460236
   0.37594427  0.43797164  0.76348054
Direct configuration=    21
   0.16666980  0.33333440  0.38759046
   0.16667624  0.83333762  0.38778975
   0.66667262  0.33333462  0.38757053
   0.66667262  0.83333700  0.38757053
  -0.00194283 -0.00150457  0.61192243
  -0.00194283  0.49956174  0.61192243
   0.49930407 -0.00034797  0.61221834
   0.49862868  0.49931434  0.61365416