CeO2                                    
           1
     7.707464    0.000000    0.000000
    -3.853732    6.674860    0.000000
     0.000000    0.000000   28.319031
   Ce   O    C    O 
  12  24   1   1
Direct configuration=     1
   0.16666700  0.33333300  0.38888900
   0.16666700  0.83333300  0.38888900
   0.66666700  0.33333300  0.38888900
   0.66666700  0.83333300  0.38888900
   0.00000000  0.00000000  0.61111100
   0.00000000  0.50000000  0.61111100
   0.50000000  0.00000000  0.61111100
   0.50000000  0.50000000  0.61111100
   0.33333300  0.16666700  0.50000000
   0.33333300  0.66666700  0.50000000
   0.83333300  0.16666700  0.50000000
   0.83333300  0.66666700  0.50000000
   0.16666700  0.33333300  0.47222200
   0.16666700  0.83333300  0.47222200
   0.66666700  0.33333300  0.47222200
   0.66666700  0.83333300  0.47222200
   0.00000000  0.00000000  0.36111100
   0.00000000  0.50000000  0.36111100
   0.50000000  0.00000000  0.36111100
   0.50000000  0.50000000  0.36111100
   0.33333300  0.16666700  0.58333300
   0.33333300  0.66666700  0.58333300
   0.83333300  0.16666700  0.58333300
   0.83333300  0.66666700  0.58333300
   0.00000000  0.00000000  0.52777800
   0.00000000  0.50000000  0.52777800
   0.50000000  0.00000000  0.52777800
   0.50000000  0.50000000  0.52777800
   0.33333300  0.16666700  0.41666700
   0.33333300  0.66666700  0.41666700
   0.83333300  0.16666700  0.41666700
   0.83333300  0.66666700  0.41666700
   0.16666700  0.33333300  0.63888900
   0.16666700  0.83333300  0.63888900
   0.66666700  0.33333300  0.63888900
   0.66666700  0.83333300  0.63888900
   0.27777800  0.44444400  0.72389500
   0.42594600  0.44444400  0.72389500
Direct configuration=     2
   0.16666794  0.33333288  0.38859083
   0.16666581  0.83333355  0.38859242
   0.66666616  0.33333454  0.38859201
   0.66666826  0.83333299  0.38859200
  -0.00053582 -0.00089206  0.61130454
  -0.00071099  0.50024191  0.61145130
   0.50017182  0.00026406  0.61144622
   0.50145081  0.50041744  0.61134000
   0.33335454  0.16667022  0.49998414
   0.33334564  0.66668251  0.49998113
   0.83331180  0.16666279  0.49998645
   0.83332216  0.66665554  0.50000027
   0.16666532  0.33333115  0.47180222
   0.16666752  0.83333565  0.47180197
   0.66666628  0.33333139  0.47180102
   0.66666788  0.83333479  0.47180172
   0.00000059 -0.00000031  0.36091153
  -0.00000012  0.50000087  0.36091137
   0.49999869 -0.00000029  0.36091144
   0.50000066  0.50000037  0.36091125
   0.33321719  0.16674784  0.58313610
   0.33325367  0.66650377  0.58314209
   0.83352750  0.16672536  0.58312990
   0.83336496  0.66673309  0.58311244
   0.00000583  0.00000671  0.52822014
   0.00000956  0.50000200  0.52821328
   0.49999342 -0.00000700  0.52820239
   0.49999390  0.49999733  0.52821058
   0.33333175  0.16666467  0.41689069
   0.33333271  0.66666816  0.41689103
   0.83333297  0.16666613  0.41689003
   0.83333506  0.66666851  0.41688991
   0.16589680  0.33253069  0.63878431
   0.16667395  0.83344018  0.63904599
   0.66679594  0.33319226  0.63890700
   0.66670008  0.83344672  0.63902303
   0.27214796  0.44495295  0.72441094
   0.43176583  0.44457866  0.72397634
Direct configuration=     3
   0.16666715  0.33333298  0.38884291
   0.16666682  0.83333308  0.38884316
   0.66666687  0.33333324  0.38884310
   0.66666719  0.83333300  0.38884310
  -0.00008282 -0.00013788  0.61114091
  -0.00010989  0.50003739  0.61116360
   0.50002656  0.00004081  0.61116281
   0.50022424  0.50006452  0.61114639
   0.33333633  0.16666750  0.49999755
   0.33333495  0.66666940  0.49999708
   0.83332972  0.16666635  0.49999791
   0.83333132  0.66666523  0.50000004
   0.16666674  0.33333271  0.47215712
   0.16666708  0.83333341  0.47215708
   0.66666689  0.33333275  0.47215693
   0.66666714  0.83333328  0.47215704
   0.00000009 -0.00000005  0.36108017
  -0.00000002  0.50000013  0.36108014
   0.49999980 -0.00000005  0.36108016
   0.50000010  0.50000006  0.36108013
   0.33331510  0.16667949  0.58330257
   0.33332074  0.66664177  0.58330349
   0.83336306  0.16667602  0.58330161
   0.83333794  0.66667721  0.58329891
   0.00000090  0.00000104  0.52784634
   0.00000148  0.50000031  0.52784528
   0.49999898 -0.00000108  0.52784359
   0.49999906  0.49999959  0.52784486
   0.33333281  0.16666664  0.41670157
   0.33333296  0.66666718  0.41670163
   0.83333300  0.16666687  0.41670147
   0.83333332  0.66666723  0.41670145
   0.16654796  0.33320899  0.63887282
   0.16666807  0.83334957  0.63891326
   0.66668693  0.33331125  0.63889178
   0.66667211  0.83335058  0.63890972
   0.27690781  0.44452266  0.72397474
   0.42684552  0.44446481  0.72390757
Direct configuration=     4
   0.16666743  0.33333322  0.38849090
   0.16666689  0.83333396  0.38849120
   0.66666751  0.33333465  0.38849149
   0.66666879  0.83333438  0.38849131
  -0.00071396 -0.00117088  0.61137280
  -0.00092459  0.50030744  0.61156605
   0.50022694  0.00033866  0.61155426
   0.50192468  0.50054868  0.61143379
   0.33336888  0.16667541  0.49998316
   0.33334629  0.66668485  0.49998318
   0.83330411  0.16666850  0.49998568
   0.83331762  0.66664306  0.49998769
   0.16666346  0.33332877  0.47163551
   0.16666174  0.83333439  0.47163537
   0.66666963  0.33333603  0.47163492
   0.66667387  0.83333468  0.47163581
   0.00000192 -0.00000047  0.36082099
   0.00000070  0.50000174  0.36082100
   0.49999798 -0.00000029  0.36082075
   0.50000041  0.49999934  0.36082057
   0.33319647  0.16678464  0.58307318
   0.33323390  0.66644765  0.58308578
   0.83357786  0.16674104  0.58306252
   0.83336997  0.66674614  0.58303858
  -0.00000058 -0.00000536  0.52838872
  -0.00000204  0.50000501  0.52838284
   0.49999679 -0.00000248  0.52837051
   0.50001450  0.50000211  0.52837774
   0.33333230  0.16666435  0.41695908
   0.33333231  0.66666821  0.41695929
   0.83333363  0.16666681  0.41695881
   0.83333607  0.66666816  0.41695942
   0.16558290  0.33224050  0.63877739
   0.16667279  0.83347290  0.63912061
   0.66686987  0.33313858  0.63892061
   0.66672029  0.83349995  0.63908285
   0.27736229  0.44512915  0.72460062
   0.42660437  0.44465452  0.72401503
Direct configuration=     5
   0.16666754  0.33333331  0.38835479
   0.16666692  0.83333430  0.38835511
   0.66666775  0.33333520  0.38835555
   0.66666941  0.83333491  0.38835529
  -0.00095799 -0.00157029  0.61146246
  -0.00123959  0.50041185  0.61172166
   0.50030441  0.00045383  0.61170561
   0.50258216  0.50073588  0.61154491
   0.33338147  0.16667847  0.49997759
   0.33335068  0.66669082  0.49997780
   0.83329420  0.16666933  0.49998095
   0.83331231  0.66663449  0.49998291
   0.16666220  0.33332724  0.47143383
   0.16665968  0.83333477  0.47143365
   0.66667069  0.33333730  0.47143308
   0.66667647  0.83333523  0.47143428
   0.00000263 -0.00000063  0.36072078
   0.00000098  0.50000236  0.36072080
   0.49999727 -0.00000039  0.36072045
   0.50000053  0.49999906  0.36072021
   0.33315060  0.16682529  0.58298448
   0.33320033  0.66637259  0.58300160
   0.83366091  0.16676618  0.58297008
   0.83338235  0.66677279  0.58293792
  -0.00000116 -0.00000783  0.52859844
  -0.00000341  0.50000682  0.52859068
   0.49999595 -0.00000302  0.52857424
   0.50002047  0.50000308  0.52858377
   0.33333211  0.16666347  0.41705865
   0.33333206  0.66666861  0.41705891
   0.83333387  0.16666678  0.41705831
   0.83333714  0.66666851  0.41705916
   0.16520976  0.33186604  0.63874049
   0.16667461  0.83352059  0.63920078
   0.66694060  0.33307182  0.63893176
   0.66673892  0.83355771  0.63914979
   0.27753801  0.44536365  0.72484262
   0.42651113  0.44472787  0.72405658
Direct configuration=     6
   0.16666445  0.33333347  0.38832749
   0.16667063  0.83333433  0.38832374
   0.66666841  0.33333001  0.38832121
   0.66666751  0.83333917  0.38832299
  -0.00051321 -0.00065744  0.61147723
  -0.00040987  0.50008320  0.61174247
   0.50008084  0.00006371  0.61163545
   0.50170706  0.50044756  0.61151486
   0.33336456  0.16665836  0.50003649
   0.33327621  0.66666267  0.50008709
   0.83332807  0.16672966  0.50004551
   0.83337711  0.66662340  0.49987182
   0.16666948  0.33331594  0.47118718
   0.16661074  0.83332611  0.47118991
   0.66668246  0.33338250  0.47118987
   0.66670824  0.83331068  0.47119228
   0.00000009 -0.00000412  0.36045763
  -0.00000220  0.50000296  0.36045785
   0.49999874  0.00000077  0.36045752
   0.50000492  0.50000076  0.36045760
   0.33341667  0.16687419  0.58305791
   0.33332778  0.66645707  0.58311540
   0.83334871  0.16664649  0.58301256
   0.83329659  0.66665583  0.58301183
  -0.00010885 -0.00023116  0.52879107
  -0.00016458  0.50009436  0.52882081
   0.50001484  0.00004364  0.52880611
   0.50030469  0.50009668  0.52880794
   0.33334093  0.16666418  0.41694579
   0.33333812  0.66667527  0.41694402
   0.83332398  0.16666389  0.41694360
   0.83333287  0.66666416  0.41695323
   0.16466552  0.33135796  0.63878016
   0.16654754  0.83348673  0.63945582
   0.66714011  0.33316491  0.63910303
   0.66678422  0.83348085  0.63938110
   0.27819171  0.44586481  0.72538098
   0.42606892  0.44494446  0.72418245
Direct configuration=     7
   0.16666413  0.33333349  0.38832467
   0.16667102  0.83333433  0.38832050
   0.66666848  0.33332948  0.38831765
   0.66666731  0.83333961  0.38831964
  -0.00046715 -0.00056291  0.61147876
  -0.00032395  0.50004917  0.61174462
   0.50005769  0.00002332  0.61162819
   0.50161644  0.50041770  0.61151175
   0.33336281  0.16665628  0.50004259
   0.33326850  0.66665975  0.50009841
   0.83333158  0.16673591  0.50005219
   0.83338382  0.66662225  0.49986031
   0.16667023  0.33331477  0.47116163
   0.16660568  0.83332521  0.47116467
   0.66668368  0.33338718  0.47116468
   0.66671153  0.83330814  0.47116722
  -0.00000018 -0.00000448  0.36043038
  -0.00000253  0.50000302  0.36043062
   0.49999889  0.00000089  0.36043029
   0.50000537  0.50000094  0.36043041
   0.33344422  0.16687925  0.58306551
   0.33334098  0.66646582  0.58312718
   0.83331637  0.16663410  0.58301696
   0.83328771  0.66664372  0.58301948
  -0.00012000 -0.00025428  0.52881102
  -0.00018127  0.50010342  0.52884464
   0.50001680  0.00004847  0.52883013
   0.50033413  0.50010637  0.52883115
   0.33334184  0.16666426  0.41693410
   0.33333875  0.66667596  0.41693212
   0.83332296  0.16666359  0.41693172
   0.83333243  0.66666371  0.41694226
   0.16460916  0.33130534  0.63878427
   0.16653439  0.83348322  0.63948223
   0.66716077  0.33317455  0.63912077
   0.66678891  0.83347289  0.63940505
   0.27825940  0.44591671  0.72543674
   0.42602313  0.44496688  0.72419549
Direct configuration=     8
   0.16666410  0.33333526  0.38830462
   0.16668076  0.83333723  0.38829806
   0.66666477  0.33332008  0.38829427
   0.66666100  0.83334370  0.38829796
  -0.00034159 -0.00030235  0.61149108
  -0.00008563  0.49994687  0.61175659
   0.49998968 -0.00009460  0.61161815
   0.50136432  0.50032980  0.61150670
   0.33335383  0.16665184  0.50005616
   0.33324502  0.66664635  0.50012510
   0.83334618  0.16675376  0.50006774
   0.83340470  0.66662175  0.49982780
   0.16667558  0.33331538  0.47109715
   0.16659825  0.83332360  0.47109811
   0.66668406  0.33339554  0.47109747
   0.66671447  0.83330070  0.47110134
  -0.00000156 -0.00000735  0.36033486
  -0.00000474  0.50000396  0.36033508
   0.49999929  0.00000164  0.36033453
   0.50000856  0.50000184  0.36033502
   0.33354216  0.16689625  0.58309758
   0.33338842  0.66649120  0.58317521
   0.83319540  0.16658225  0.58303615
   0.83325639  0.66660168  0.58305356
  -0.00014720 -0.00031796  0.52885906
  -0.00022015  0.50013259  0.52890748
   0.50001394  0.00005348  0.52889284
   0.50041717  0.50013551  0.52889152
   0.33334514  0.16666374  0.41688651
   0.33333998  0.66667864  0.41688495
   0.83331927  0.16666325  0.41688328
   0.83333180  0.66666172  0.41689387
   0.16442740  0.33113770  0.63880245
   0.16650287  0.83347055  0.63957471
   0.66722692  0.33320369  0.63918500
   0.66679206  0.83343841  0.63948987
   0.27796963  0.44611927  0.72565492
   0.42640173  0.44505105  0.72424323
Direct configuration=     9
   0.16666409  0.33333579  0.38829860
   0.16668368  0.83333810  0.38829132
   0.66666366  0.33331726  0.38828725
   0.66665910  0.83334493  0.38829144
  -0.00030386 -0.00022405  0.61149478
  -0.00001402  0.49991613  0.61176018
   0.49996924 -0.00013003  0.61161513
   0.50128856  0.50030338  0.61150519
   0.33335114  0.16665051  0.50006023
   0.33323797  0.66664233  0.50013312
   0.83335057  0.16675912  0.50007241
   0.83341097  0.66662160  0.49981803
   0.16667719  0.33331557  0.47107777
   0.16659602  0.83332312  0.47107811
   0.66668417  0.33339806  0.47107728
   0.66671536  0.83329847  0.47108154
  -0.00000197 -0.00000821  0.36030615
  -0.00000540  0.50000424  0.36030637
   0.49999940  0.00000186  0.36030575
   0.50000952  0.50000211  0.36030636
   0.33357159  0.16690136  0.58310722
   0.33340268  0.66649882  0.58318965
   0.83315904  0.16656667  0.58304192
   0.83324698  0.66658905  0.58306381
  -0.00015537 -0.00033710  0.52887350
  -0.00023183  0.50014136  0.52892637
   0.50001309  0.00005499  0.52891168
   0.50044212  0.50014426  0.52890966
   0.33334614  0.16666358  0.41687220
   0.33334035  0.66667944  0.41687077
   0.83331816  0.16666315  0.41686872
   0.83333161  0.66666112  0.41687933
   0.16437278  0.33108733  0.63880792
   0.16649340  0.83346674  0.63960251
   0.66724680  0.33321244  0.63920430
   0.66679301  0.83342804  0.63951536
   0.27788255  0.44618013  0.72572048
   0.42651550  0.44507634  0.72425758
Direct configuration=    10
   0.16666541  0.33333807  0.38827490
   0.16669562  0.83334205  0.38826589
   0.66665840  0.33330644  0.38826171
   0.66665137  0.83334877  0.38826754
  -0.00032589 -0.00026054  0.61151032
  -0.00004212  0.49991448  0.61177461
   0.49997060 -0.00012847  0.61163750
   0.50132751  0.50030778  0.61151761
   0.33334693  0.16665237  0.50005437
   0.33323690  0.66663618  0.50012461
   0.83335532  0.16675837  0.50006704
   0.83341337  0.66662515  0.49981862
   0.16668220  0.33332183  0.47108583
   0.16660748  0.83332454  0.47108148
   0.66667949  0.33338984  0.47107951
   0.66670519  0.83329840  0.47108519
  -0.00000260 -0.00001062  0.36027611
  -0.00000685  0.50000524  0.36027619
   0.49999935  0.00000226  0.36027511
   0.50001201  0.50000255  0.36027626
   0.33359710  0.16690614  0.58311987
   0.33341509  0.66649507  0.58320839
   0.83312014  0.16654238  0.58304869
   0.83323998  0.66658012  0.58307886
  -0.00014708 -0.00033184  0.52886536
  -0.00021667  0.50014594  0.52892356
   0.49999946  0.00004040  0.52890727
   0.50043859  0.50014590  0.52890536
   0.33334695  0.16666248  0.41685357
   0.33333938  0.66668013  0.41685372
   0.83331758  0.16666402  0.41684966
   0.83333287  0.66666016  0.41685636
   0.16433010  0.33105340  0.63881958
   0.16650272  0.83346352  0.63963020
   0.66726157  0.33321202  0.63922493
   0.66677937  0.83341384  0.63954147
   0.27791741  0.44626251  0.72580998
   0.42651974  0.44511711  0.72428280
Direct configuration=    11
   0.16666938  0.33334491  0.38820381
   0.16673142  0.83335391  0.38818959
   0.66664261  0.33327398  0.38818510
   0.66662818  0.83336028  0.38819582
  -0.00039199 -0.00037001  0.61155692
  -0.00012641  0.49990953  0.61181788
   0.49997467 -0.00012381  0.61170459
   0.50144435  0.50032096  0.61155488
   0.33333430  0.16665794  0.50003678
   0.33323371  0.66661774  0.50009905
   0.83336957  0.16675612  0.50005094
   0.83342055  0.66663581  0.49982039
   0.16669724  0.33334064  0.47111001
   0.16664186  0.83332878  0.47109158
   0.66666544  0.33336520  0.47108619
   0.66667470  0.83329820  0.47109614
  -0.00000447 -0.00001785  0.36018600
  -0.00001118  0.50000824  0.36018564
   0.49999920  0.00000347  0.36018318
   0.50001949  0.50000386  0.36018595
   0.33367363  0.16692049  0.58315782
   0.33345232  0.66648380  0.58326460
   0.83300344  0.16646953  0.58306900
   0.83321901  0.66655335  0.58312404
  -0.00012222 -0.00031604  0.52884094
  -0.00017118  0.50015971  0.52891516
   0.49995859 -0.00000337  0.52889402
   0.50042799  0.50015082  0.52889245
   0.33334937  0.16665918  0.41679766
   0.33333647  0.66668221  0.41680256
   0.83331586  0.16666661  0.41679245
   0.83333663  0.66665728  0.41678746
   0.16420206  0.33095161  0.63885455
   0.16653068  0.83345385  0.63971329
   0.66730588  0.33321077  0.63928680
   0.66673844  0.83337122  0.63961981
   0.27802198  0.44650964  0.72607847
   0.42653243  0.44523944  0.72435844
Direct configuration=    12
   0.16667732  0.33335860  0.38806164
   0.16680302  0.83337764  0.38803699
   0.66661103  0.33320906  0.38803189
   0.66658181  0.83338332  0.38805239
  -0.00052418 -0.00058896  0.61165014
  -0.00029500  0.49989963  0.61190444
   0.49998281 -0.00011447  0.61183877
   0.50167803  0.50034733  0.61162943
   0.33330906  0.16666908  0.50000160
   0.33322732  0.66658087  0.50004795
   0.83339806  0.16675162  0.50001875
   0.83343490  0.66665712  0.49982393
   0.16672733  0.33337824  0.47115838
   0.16671062  0.83333727  0.47111179
   0.66663733  0.33331592  0.47109957
   0.66661371  0.83329779  0.47111803
  -0.00000822 -0.00003232  0.36000577
  -0.00001985  0.50001424  0.36000455
   0.49999888  0.00000589  0.35999932
   0.50003443  0.50000650  0.36000534
   0.33382670  0.16694919  0.58323372
   0.33352679  0.66646126  0.58337702
   0.83277004  0.16632382  0.58310963
   0.83317705  0.66649980  0.58321440
  -0.00007248 -0.00028446  0.52879211
  -0.00008021  0.50018724  0.52889836
   0.49987685 -0.00009090  0.52886753
   0.50040679  0.50016065  0.52886664
   0.33335423  0.16665257  0.41668583
   0.33333064  0.66668636  0.41670023
   0.83331241  0.16667180  0.41667805
   0.83334416  0.66665152  0.41664966
   0.16394597  0.33074802  0.63892449
   0.16658659  0.83343452  0.63987946
   0.66739451  0.33320826  0.63941056
   0.66665659  0.83328598  0.63977648
   0.27823113  0.44700390  0.72661545
   0.42655782  0.44548409  0.72450972
Direct configuration=    13
   0.16669319  0.33338597  0.38777729
   0.16694623  0.83342508  0.38773180
   0.66654786  0.33307922  0.38772546
   0.66648905  0.83342938  0.38776553
  -0.00078856 -0.00102685  0.61183657
  -0.00063217  0.49987983  0.61207754
   0.49999908 -0.00009581  0.61210714
   0.50214540  0.50040007  0.61177852
   0.33325856  0.16669136  0.49993125
   0.33321454  0.66650713  0.49994575
   0.83345505  0.16674263  0.49995437
   0.83346362  0.66669975  0.49983101
   0.16678751  0.33345346  0.47125513
   0.16684813  0.83335425  0.47115220
   0.66658111  0.33321736  0.47112631
   0.66649172  0.83329698  0.47116180
  -0.00001571 -0.00006125  0.35964531
  -0.00003718  0.50002623  0.35964237
   0.49999826  0.00001073  0.35963161
   0.50006432  0.50001178  0.35964412
   0.33413284  0.16700659  0.58338552
   0.33367572  0.66641617  0.58360187
   0.83230323  0.16603240  0.58319088
   0.83309315  0.66639269  0.58339510
   0.00002700 -0.00022128  0.52869444
   0.00010173  0.50024230  0.52886475
   0.49971337 -0.00026596  0.52881455
   0.50036440  0.50018032  0.52881502
   0.33336394  0.16663935  0.41646219
   0.33331898  0.66669467  0.41649557
   0.83330552  0.16668217  0.41644924
   0.83335922  0.66664001  0.41637405
   0.16343380  0.33034086  0.63906439
   0.16669843  0.83339585  0.64021181
   0.66757175  0.33320325  0.63965806
   0.66649289  0.83311551  0.64008982
   0.27864943  0.44799241  0.72768941
   0.42660860  0.44597338  0.72481228
Direct configuration=    14
   0.16672492  0.33344071  0.38720858
   0.16723264  0.83351996  0.38712141
   0.66642154  0.33281955  0.38711260
   0.66630355  0.83352152  0.38719182
  -0.00131733 -0.00190264  0.61220943
  -0.00130652  0.49984023  0.61242375
   0.50003163 -0.00005848  0.61264387
   0.50308013  0.50050555  0.61207671
   0.33315756  0.16673593  0.49979053
   0.33318899  0.66635964  0.49974134
   0.83356903  0.16672463  0.49982559
   0.83352105  0.66678500  0.49984517
   0.16690785  0.33360389  0.47144861
   0.16712315  0.83338820  0.47123302
   0.66646869  0.33302025  0.47117981
   0.66624776  0.83329536  0.47124936
  -0.00003070 -0.00011911  0.35892439
  -0.00007186  0.50005022  0.35891800
   0.49999701  0.00002041  0.35889617
   0.50012410  0.50002234  0.35892168
   0.33474512  0.16712138  0.58368912
   0.33397357  0.66632601  0.58405156
   0.83136962  0.16544957  0.58335339
   0.83292533  0.66617848  0.58375652
   0.00022596 -0.00009493  0.52849910
   0.00046561  0.50035242  0.52879753
   0.49938640 -0.00061608  0.52870858
   0.50027961  0.50021964  0.52871177
   0.33338336  0.16661292  0.41601490
   0.33329566  0.66671128  0.41608626
   0.83329174  0.16670292  0.41599163
   0.83338934  0.66661698  0.41582283
   0.16240947  0.32952653  0.63934417
   0.16692210  0.83331851  0.64087650
   0.66792624  0.33319323  0.64015307
   0.66616549  0.83277457  0.64071652
   0.27948602  0.44996944  0.72983733
   0.42671016  0.44695197  0.72541740
Direct configuration=    15
   0.16671195  0.33341834  0.38744104
   0.16711557  0.83348118  0.38737091
   0.66647317  0.33292569  0.38736310
   0.66637938  0.83348386  0.38742632
  -0.00110120 -0.00154466  0.61205702
  -0.00103088  0.49985641  0.61228224
   0.50001832 -0.00007374  0.61242448
   0.50269806  0.50046243  0.61195483
   0.33319884  0.16671771  0.49984805
   0.33319944  0.66641993  0.49982489
   0.83352244  0.16673199  0.49987823
   0.83349757  0.66675016  0.49983938
   0.16685866  0.33354240  0.47136952
   0.16701074  0.83337432  0.47119999
   0.66651464  0.33310082  0.47115794
   0.66634748  0.83329603  0.47121357
  -0.00002457 -0.00009546  0.35921907
  -0.00005768  0.50004042  0.35921408
   0.49999752  0.00001645  0.35919678
   0.50009967  0.50001802  0.35921698
   0.33449485  0.16707446  0.58356503
   0.33385183  0.66636287  0.58386775
   0.83175123  0.16568780  0.58328696
   0.83299393  0.66626604  0.58360879
   0.00014463 -0.00014658  0.52857894
   0.00031688  0.50030741  0.52882500
   0.49952004 -0.00047297  0.52875189
   0.50031427  0.50020357  0.52875397
   0.33337542  0.16662372  0.41619773
   0.33330519  0.66670449  0.41625356
   0.83329737  0.16669444  0.41617868
   0.83337703  0.66662639  0.41604814
   0.16282816  0.32985938  0.63922981
   0.16683067  0.83335012  0.64060481
   0.66778134  0.33319733  0.63995073
   0.66629932  0.83291393  0.64046036
   0.27914407  0.44916134  0.72895937
   0.42666865  0.44655197  0.72517005
Direct configuration=    16
   0.16670878  0.33340823  0.38738747
   0.16707332  0.83346745  0.38731917
   0.66649140  0.33296345  0.38731186
   0.66640789  0.83346830  0.38737610
  -0.00109361 -0.00151474  0.61209645
  -0.00099671  0.49980164  0.61231425
   0.49999039 -0.00013088  0.61245985
   0.50262407  0.50042097  0.61198981
   0.33324018  0.16669264  0.49985431
   0.33322566  0.66646916  0.49983894
   0.83345670  0.16670484  0.49988463
   0.83350360  0.66674106  0.49982866
   0.16686274  0.33354863  0.47136008
   0.16700516  0.83336399  0.47118355
   0.66652317  0.33310633  0.47114462
   0.66634802  0.83329069  0.47119921
  -0.00001596 -0.00007854  0.35913248
  -0.00004305  0.50003415  0.35912558
   0.49999526  0.00001022  0.35910492
   0.50008003  0.50001228  0.35912973
   0.33452962  0.16706324  0.58360229
   0.33387917  0.66635284  0.58391497
   0.83165201  0.16559954  0.58330756
   0.83299619  0.66626992  0.58364474
   0.00015352 -0.00016458  0.52856550
   0.00033255  0.50032709  0.52881675
   0.49947400 -0.00051856  0.52873598
   0.50034022  0.50021856  0.52874072
   0.33336754  0.16662527  0.41612893
   0.33329990  0.66669514  0.41618501
   0.83330914  0.16669762  0.41611017
   0.83338073  0.66662943  0.41598053
   0.16270704  0.32976253  0.63927576
   0.16681481  0.83333618  0.64067924
   0.66782934  0.33321835  0.64001987
   0.66631342  0.83287943  0.64053568
   0.27960709  0.44940560  0.72923082
   0.42635067  0.44671053  0.72527383
Direct configuration=    17
   0.16670778  0.33340504  0.38737061
   0.16706001  0.83346312  0.38730289
   0.66649714  0.33297534  0.38729572
   0.66641686  0.83346341  0.38736029
  -0.00109122 -0.00150531  0.61210886
  -0.00098595  0.49978440  0.61232433
   0.49998159 -0.00014887  0.61247098
   0.50260078  0.50040792  0.61200082
   0.33325319  0.16668475  0.49985628
   0.33323391  0.66648465  0.49984336
   0.83343600  0.16669630  0.49988665
   0.83350550  0.66673819  0.49982528
   0.16686402  0.33355059  0.47135710
   0.16700341  0.83336074  0.47117838
   0.66652586  0.33310807  0.47114042
   0.66634819  0.83328900  0.47119469
  -0.00001325 -0.00007321  0.35910522
  -0.00003845  0.50003217  0.35909772
   0.49999455  0.00000826  0.35907600
   0.50007384  0.50001047  0.35910226
   0.33454056  0.16705971  0.58361403
   0.33388778  0.66634969  0.58392983
   0.83162078  0.16557175  0.58331405
   0.83299691  0.66627114  0.58365606
   0.00015632 -0.00017025  0.52856127
   0.00033748  0.50033329  0.52881415
   0.49945950 -0.00053291  0.52873097
   0.50034839  0.50022327  0.52873655
   0.33336506  0.16662576  0.41610727
   0.33329823  0.66669219  0.41616343
   0.83331284  0.16669862  0.41608860
   0.83338189  0.66663039  0.41595924
   0.16266891  0.32973204  0.63929022
   0.16680982  0.83333179  0.64070267
   0.66784446  0.33322497  0.64004164
   0.66631786  0.83286857  0.64055939
   0.27975285  0.44948249  0.72931627
   0.42625057  0.44676044  0.72530649
Direct configuration=    18
   0.16669951  0.33338372  0.38734834
   0.16696377  0.83343082  0.38728720
   0.66653891  0.33306144  0.38728076
   0.66648028  0.83342863  0.38734257
  -0.00101736 -0.00135633  0.61212897
  -0.00085530  0.49969987  0.61233633
   0.49993237 -0.00024546  0.61246714
   0.50237448  0.50032887  0.61202156
   0.33332489  0.16664085  0.49987931
   0.33327527  0.66657255  0.49988565
   0.83332504  0.16665566  0.49990828
   0.83350958  0.66671578  0.49980474
   0.16685583  0.33354207  0.47131674
   0.16696013  0.83333827  0.47113913
   0.66655404  0.33314011  0.47111012
   0.66637897  0.83328016  0.47115838
   0.00000167 -0.00004035  0.35904133
  -0.00001175  0.50001887  0.35903106
   0.49999116 -0.00000297  0.35900532
   0.50003583  0.49999972  0.35903753
   0.33452638  0.16702561  0.58364231
   0.33389901  0.66634261  0.58395720
   0.83156046  0.16548792  0.58333050
   0.83301914  0.66630167  0.58367467
   0.00014814 -0.00021644  0.52856413
   0.00032042  0.50035245  0.52881043
   0.49941792 -0.00057099  0.52871839
   0.50040245  0.50024308  0.52872885
   0.33335055  0.16663080  0.41604316
   0.33329275  0.66667512  0.41609512
   0.83333257  0.16670043  0.41602622
   0.83338368  0.66663732  0.41590916
   0.16258390  0.32966145  0.63933511
   0.16675744  0.83331696  0.64075114
   0.66788177  0.33325942  0.64010213
   0.66637954  0.83284900  0.64061490
   0.27981618  0.44969224  0.72955810
   0.42633435  0.44690707  0.72539799
Direct configuration=    19
   0.16667471  0.33331976  0.38728152
   0.16667506  0.83333390  0.38724015
   0.66666419  0.33331976  0.38723586
   0.66667055  0.83332429  0.38728942
  -0.00079577 -0.00090936  0.61218931
  -0.00046337  0.49944626  0.61237233
   0.49978469 -0.00053522  0.61245563
   0.50169558  0.50009173  0.61208376
   0.33353999  0.16650915  0.49994839
   0.33339934  0.66683623  0.50001253
   0.83299214  0.16653375  0.49997320
   0.83352183  0.66664852  0.49974309
   0.16683126  0.33351651  0.47119565
   0.16683029  0.83327085  0.47102139
   0.66663859  0.33323624  0.47101921
   0.66647133  0.83325362  0.47104948
   0.00004641  0.00005824  0.35884968
   0.00006836  0.49997894  0.35883108
   0.49998100 -0.00003665  0.35879328
   0.49992180  0.49996747  0.35884334
   0.33448384  0.16692331  0.58372717
   0.33393269  0.66632139  0.58403932
   0.83137949  0.16523643  0.58337985
   0.83308582  0.66639328  0.58373050
   0.00012363 -0.00035500  0.52857271
   0.00026925  0.50040995  0.52879926
   0.49929317 -0.00068523  0.52868065
   0.50056461  0.50030251  0.52870575
   0.33330705  0.16664591  0.41585086
   0.33327630  0.66662389  0.41589020
   0.83339176  0.16670586  0.41583906
   0.83338905  0.66665813  0.41575893
   0.16232888  0.32944965  0.63946976
   0.16660031  0.83327246  0.64089656
   0.66799373  0.33336278  0.64028360
   0.66656459  0.83279028  0.64078144
   0.28000617  0.45032147  0.73028359
   0.42658571  0.44734693  0.72567249
Direct configuration=    20
   0.16667245  0.33331393  0.38727544
   0.16664877  0.83332508  0.38723587
   0.66667560  0.33334328  0.38723178
   0.66668787  0.83331479  0.38728458
  -0.00077560 -0.00086866  0.61219480
  -0.00042769  0.49942316  0.61237561
   0.49977124 -0.00056161  0.61245458
   0.50163376  0.50007014  0.61208943
   0.33355958  0.16649716  0.49995468
   0.33341064  0.66686024  0.50002409
   0.83296183  0.16652265  0.49997911
   0.83352294  0.66664240  0.49973748
   0.16682902  0.33351419  0.47118463
   0.16681847  0.83326471  0.47101067
   0.66664629  0.33324500  0.47101093
   0.66647974  0.83325121  0.47103956
   0.00005049  0.00006722  0.35883223
   0.00007566  0.49997531  0.35881287
   0.49998008 -0.00003972  0.35877397
   0.49991142  0.49996453  0.35882566
   0.33447996  0.16691400  0.58373490
   0.33393576  0.66631946  0.58404680
   0.83136301  0.16521353  0.58338434
   0.83309189  0.66640162  0.58373558
   0.00012140 -0.00036762  0.52857349
   0.00026459  0.50041518  0.52879824
   0.49928181 -0.00069563  0.52867721
   0.50057937  0.50030792  0.52870365
   0.33330308  0.16664728  0.41583334
   0.33327480  0.66661923  0.41587154
   0.83339715  0.16670635  0.41582201
   0.83338954  0.66666003  0.41574525
   0.16230566  0.32943037  0.63948203
   0.16658600  0.83326841  0.64090980
   0.66800392  0.33337219  0.64030013
   0.66658144  0.83278493  0.64079660
   0.28002347  0.45037876  0.73034965
   0.42660859  0.44738698  0.72569748
Direct configuration=    21
   0.16667203  0.33331234  0.38725681
   0.16662040  0.83331010  0.38721064
   0.66669071  0.33337026  0.38720403
   0.66670343  0.83330066  0.38725528
  -0.00074753 -0.00082323  0.61219905
  -0.00039440  0.49936911  0.61237936
   0.49973884 -0.00062267  0.61245247
   0.50150661  0.50001808  0.61210876