CeO2                                    
           1
     7.707464    0.000000    0.000000
    -3.853732    6.674860    0.000000
     0.000000    0.000000   28.319031
   Ce   O    C    O 
  12  24   1   1
Direct configuration=     1
   0.16666700  0.33333300  0.38888900
   0.16666700  0.83333300  0.38888900
   0.66666700  0.33333300  0.38888900
   0.66666700  0.83333300  0.38888900
   0.00000000  0.00000000  0.61111100
   0.00000000  0.50000000  0.61111100
   0.50000000  0.00000000  0.61111100
   0.50000000  0.50000000  0.61111100
   0.33333300  0.16666700  0.50000000
   0.33333300  0.66666700  0.50000000
   0.83333300  0.16666700  0.50000000
   0.83333300  0.66666700  0.50000000
   0.16666700  0.33333300  0.47222200
   0.16666700  0.83333300  0.47222200
   0.66666700  0.33333300  0.47222200
   0.66666700  0.83333300  0.47222200
   0.00000000  0.00000000  0.36111100
   0.00000000  0.50000000  0.36111100
   0.50000000  0.00000000  0.36111100
   0.50000000  0.50000000  0.36111100
   0.33333300  0.16666700  0.58333300
   0.33333300  0.66666700  0.58333300
   0.83333300  0.16666700  0.58333300
   0.83333300  0.66666700  0.58333300
   0.00000000  0.00000000  0.52777800
   0.00000000  0.50000000  0.52777800
   0.50000000  0.00000000  0.52777800
   0.50000000  0.50000000  0.52777800
   0.33333300  0.16666700  0.41666700
   0.33333300  0.66666700  0.41666700
   0.83333300  0.16666700  0.41666700
   0.83333300  0.66666700  0.41666700
   0.16666700  0.33333300  0.63888900
   0.16666700  0.83333300  0.63888900
   0.66666700  0.33333300  0.63888900
   0.66666700  0.83333300  0.63888900
   0.50000000  0.22222200  0.76422100
   0.50000000  0.22222200  0.72389500
Direct configuration=     2
   0.16666715  0.33333196  0.38860153
   0.16666339  0.83333250  0.38860191
   0.66666770  0.33333665  0.38860178
   0.66666929  0.83333067  0.38860228
   0.00002227 -0.00000942  0.61132617
  -0.00037056  0.49984855  0.61133055
   0.50007474  0.00025868  0.61134946
   0.50014250  0.49987107  0.61131423
   0.33334291  0.16667163  0.49999427
   0.33333018  0.66666662  0.49999583
   0.83332843  0.16667444  0.49999903
   0.83332931  0.66665513  0.49999887
   0.16666977  0.33333239  0.47179802
   0.16666854  0.83333624  0.47179718
   0.66666343  0.33333239  0.47179543
   0.66666620  0.83333198  0.47179832
   0.00000108 -0.00000187  0.36091065
  -0.00000338  0.50000046  0.36091069
   0.49999929  0.00000284  0.36091071
   0.50000262  0.49999811  0.36091069
   0.33327706  0.16664180  0.58312404
   0.33337569  0.66668310  0.58312528
   0.83335007  0.16655758  0.58312045
   0.83335125  0.66680553  0.58311777
   0.00000261  0.00000298  0.52821191
   0.00001863  0.50000748  0.52820098
   0.49999238 -0.00001565  0.52821137
   0.49998902  0.50000488  0.52821198
   0.33333479  0.16666637  0.41688676
   0.33333300  0.66666774  0.41688748
   0.83333199  0.16666749  0.41688690
   0.83333345  0.66666541  0.41688654
   0.16666546  0.33329234  0.63914237
   0.16659903  0.83330482  0.63912482
   0.66832819  0.33446808  0.63844182
   0.66667679  0.83333403  0.63914746
   0.50029069  0.22244466  0.76473348
   0.49821505  0.22094434  0.72410697
Direct configuration=     3
   0.16666726  0.33333123  0.38840101
   0.16666087  0.83333216  0.38840165
   0.66666819  0.33333920  0.38840143
   0.66667089  0.83332905  0.38840229
   0.00003780 -0.00001599  0.61147626
  -0.00062903  0.49974292  0.61148369
   0.50012687  0.00043912  0.61151579
   0.50024190  0.49978114  0.61145599
   0.33334982  0.16667485  0.49999027
   0.33332821  0.66666635  0.49999293
   0.83332523  0.16667963  0.49999836
   0.83332674  0.66664685  0.49999808
   0.16667170  0.33333197  0.47150230
   0.16666962  0.83333849  0.47150086
   0.66666094  0.33333196  0.47149789
   0.66666564  0.83333127  0.47150279
   0.00000183 -0.00000318  0.36077090
  -0.00000575  0.50000079  0.36077097
   0.49999879  0.00000482  0.36077101
   0.50000445  0.49999680  0.36077098
   0.33323805  0.16662423  0.58297829
   0.33340546  0.66669432  0.58298039
   0.83336197  0.16648126  0.58297219
   0.83336398  0.66690216  0.58296764
   0.00000443  0.00000506  0.52851456
   0.00003162  0.50001270  0.52849602
   0.49998707 -0.00002657  0.52851366
   0.49998136  0.50000829  0.52851469
   0.33333605  0.16666594  0.41704005
   0.33333299  0.66666826  0.41704127
   0.83333129  0.16666782  0.41704029
   0.83333377  0.66666430  0.41703967
   0.16666438  0.33326398  0.63931911
   0.16655161  0.83328516  0.63928931
   0.66948689  0.33525982  0.63812990
   0.66668363  0.83333474  0.63932775
   0.50049345  0.22259997  0.76509094
   0.49697001  0.22005315  0.72425483
Direct configuration=     4
   0.16666694  0.33333109  0.38833769
   0.16666020  0.83333186  0.38833836
   0.66666857  0.33333975  0.38833792
   0.66667127  0.83332886  0.38833916
   0.00003830 -0.00001782  0.61152765
  -0.00067234  0.49972828  0.61152960
   0.50013511  0.00046286  0.61156597
   0.50026396  0.49978046  0.61149800
   0.33335001  0.16667420  0.49998834
   0.33332567  0.66666592  0.49999447
   0.83332579  0.16668139  0.49999915
   0.83332848  0.66664627  0.49999862
   0.16667298  0.33333083  0.47139552
   0.16667048  0.83334082  0.47139395
   0.66665864  0.33333119  0.47139085
   0.66666576  0.83333107  0.47139613
   0.00000210 -0.00000350  0.36071071
  -0.00000636  0.50000086  0.36071077
   0.49999859  0.00000534  0.36071084
   0.50000487  0.49999637  0.36071079
   0.33322849  0.16661716  0.58293904
   0.33342660  0.66670663  0.58293948
   0.83336447  0.16643662  0.58292825
   0.83337255  0.66695900  0.58292150
   0.00000848  0.00000752  0.52862061
   0.00003210  0.50001273  0.52859930
   0.49998518 -0.00002609  0.52862191
   0.49997909  0.50000540  0.52862206
   0.33333630  0.16666590  0.41708075
   0.33333291  0.66666820  0.41708185
   0.83333126  0.16666798  0.41708088
   0.83333383  0.66666394  0.41708020
   0.16666914  0.33324797  0.63939166
   0.16654183  0.83328937  0.63935734
   0.66990910  0.33554830  0.63802195
   0.66668316  0.83333648  0.63940218
   0.50056450  0.22265508  0.76507700
   0.49647198  0.21969570  0.72447557
Direct configuration=     5
   0.16666661  0.33333096  0.38827453
   0.16665954  0.83333157  0.38827523
   0.66666896  0.33334030  0.38827457
   0.66667165  0.83332867  0.38827620
   0.00003881 -0.00001964  0.61157891
  -0.00071555  0.49971368  0.61157539
   0.50014332  0.00048654  0.61161603
   0.50028596  0.49977977  0.61153990
   0.33335020  0.16667355  0.49998642
   0.33332314  0.66666548  0.49999601
   0.83332635  0.16668315  0.49999995
   0.83333022  0.66664568  0.49999916
   0.16667426  0.33332970  0.47128902
   0.16667133  0.83334314  0.47128731
   0.66665635  0.33333043  0.47128408
   0.66666587  0.83333086  0.47128976
   0.00000237 -0.00000381  0.36065067
  -0.00000698  0.50000093  0.36065072
   0.49999840  0.00000586  0.36065082
   0.50000528  0.49999595  0.36065075
   0.33321896  0.16661012  0.58289988
   0.33344769  0.66671891  0.58289867
   0.83336697  0.16639209  0.58288442
   0.83338109  0.66701569  0.58287547
   0.00001252  0.00000997  0.52872637
   0.00003258  0.50001277  0.52870232
   0.49998329 -0.00002561  0.52872988
   0.49997682  0.50000252  0.52872915
   0.33333655  0.16666587  0.41712135
   0.33333283  0.66666814  0.41712233
   0.83333122  0.16666814  0.41712137
   0.83333388  0.66666359  0.41712063
   0.16667389  0.33323199  0.63946403
   0.16653208  0.83329356  0.63942519
   0.67033021  0.33583604  0.63791429
   0.66668270  0.83333822  0.63947642
   0.50063537  0.22271005  0.76506309
   0.49597525  0.21933918  0.72469573
Direct configuration=     6
   0.16666653  0.33333092  0.38825820
   0.16665937  0.83333150  0.38825891
   0.66666906  0.33334044  0.38825819
   0.66667175  0.83332862  0.38825992
   0.00003893 -0.00002011  0.61159216
  -0.00072672  0.49970990  0.61158722
   0.50014545  0.00049266  0.61162897
   0.50029165  0.49977960  0.61155074
   0.33335025  0.16667338  0.49998592
   0.33332249  0.66666537  0.49999640
   0.83332649  0.16668361  0.50000015
   0.83333066  0.66664553  0.49999929
   0.16667459  0.33332941  0.47126149
   0.16667155  0.83334374  0.47125974
   0.66665575  0.33333023  0.47125648
   0.66666590  0.83333081  0.47126226
   0.00000243 -0.00000390  0.36063515
  -0.00000714  0.50000095  0.36063519
   0.49999835  0.00000599  0.36063530
   0.50000539  0.49999584  0.36063523
   0.33321649  0.16660830  0.58288976
   0.33345314  0.66672208  0.58288812
   0.83336761  0.16638058  0.58287309
   0.83338330  0.66703035  0.58286358
   0.00001357  0.00001060  0.52875372
   0.00003270  0.50001277  0.52872895
   0.49998280 -0.00002549  0.52875779
   0.49997624  0.50000178  0.52875684
   0.33333662  0.16666586  0.41713184
   0.33333281  0.66666813  0.41713279
   0.83333121  0.16666818  0.41713183
   0.83333390  0.66666350  0.41713108
   0.16667512  0.33322786  0.63948274
   0.16652956  0.83329465  0.63944273
   0.67043907  0.33591042  0.63788645
   0.66668258  0.83333867  0.63949561
   0.50065369  0.22272426  0.76505949
   0.49584684  0.21924702  0.72475265
Direct configuration=     7
   0.16666655  0.33333093  0.38826155
   0.16665940  0.83333151  0.38826226
   0.66666904  0.33334041  0.38826155
   0.66667173  0.83332863  0.38826326
   0.00003891 -0.00002002  0.61158944
  -0.00072443  0.49971068  0.61158479
   0.50014501  0.00049140  0.61162631
   0.50029048  0.49977963  0.61154851
   0.33335024  0.16667341  0.49998602
   0.33332262  0.66666539  0.49999632
   0.83332646  0.16668352  0.50000011
   0.83333057  0.66664556  0.49999927
   0.16667452  0.33332947  0.47126714
   0.16667150  0.83334362  0.47126540
   0.66665588  0.33333027  0.47126215
   0.66666590  0.83333082  0.47126790
   0.00000242 -0.00000388  0.36063834
  -0.00000710  0.50000094  0.36063838
   0.49999836  0.00000596  0.36063849
   0.50000536  0.49999586  0.36063842
   0.33321700  0.16660867  0.58289184
   0.33345202  0.66672143  0.58289029
   0.83336748  0.16638294  0.58287542
   0.83338285  0.66702734  0.58286602
   0.00001336  0.00001047  0.52874811
   0.00003268  0.50001277  0.52872349
   0.49998290 -0.00002551  0.52875206
   0.49997636  0.50000193  0.52875116
   0.33333661  0.16666586  0.41712969
   0.33333282  0.66666813  0.41713064
   0.83333121  0.16666818  0.41712969
   0.83333390  0.66666352  0.41712893
   0.16667486  0.33322871  0.63947890
   0.16653007  0.83329443  0.63943913
   0.67041673  0.33589516  0.63789217
   0.66668261  0.83333857  0.63949167
   0.50064993  0.22272135  0.76506023
   0.49587319  0.21926593  0.72474097
Direct configuration=     8
   0.16666606  0.33333122  0.38826612
   0.16665964  0.83333112  0.38826672
   0.66666948  0.33334008  0.38826580
   0.66667146  0.83332907  0.38826790
   0.00003254 -0.00001889  0.61159206
  -0.00065681  0.49974345  0.61157723
   0.50013191  0.00043610  0.61161798
   0.50027458  0.49982535  0.61154051
   0.33334597  0.16667028  0.49998473
   0.33332018  0.66666509  0.49999919
   0.83332935  0.16668254  0.50000117
   0.83333495  0.66665041  0.49999995
   0.16667579  0.33332836  0.47125428
   0.16667266  0.83334598  0.47125259
   0.66665346  0.33332918  0.47124961
   0.66666585  0.83333069  0.47125514
   0.00000250 -0.00000372  0.36061640
  -0.00000692  0.50000091  0.36061642
   0.49999828  0.00000586  0.36061658
   0.50000511  0.49999580  0.36061648
   0.33322172  0.16660652  0.58290709
   0.33347093  0.66673551  0.58290215
   0.83336606  0.16635066  0.58288423
   0.83339066  0.66706965  0.58287223
   0.00001953  0.00001387  0.52875603
   0.00002812  0.50001073  0.52873124
   0.49998189 -0.00002041  0.52876388
   0.49997578  0.49999609  0.52876135
   0.33333645  0.16666601  0.41711315
   0.33333264  0.66666782  0.41711379
   0.83333147  0.16666832  0.41711295
   0.83333386  0.66666347  0.41711222
   0.16668466  0.33321911  0.63950115
   0.16654175  0.83331261  0.63946091
   0.67047177  0.33593305  0.63788667
   0.66667651  0.83334037  0.63951514
   0.50067896  0.22274397  0.76509194
   0.49571117  0.21914776  0.72477302
Direct configuration=     9
   0.16666461  0.33333207  0.38827984
   0.16666037  0.83332996  0.38828009
   0.66667078  0.33333910  0.38827853
   0.66667063  0.83333039  0.38828183
   0.00001345 -0.00001552  0.61159992
  -0.00045394  0.49984177  0.61155454
   0.50009261  0.00027019  0.61159296
   0.50022689  0.49996251  0.61151649
   0.33333315  0.16666090  0.49998084
   0.33331286  0.66666419  0.50000781
   0.83333800  0.16667963  0.50000436
   0.83334808  0.66666493  0.50000202
   0.16667961  0.33332504  0.47121568
   0.16667614  0.83335305  0.47121416
   0.66664621  0.33332591  0.47121200
   0.66666572  0.83333028  0.47121687
   0.00000276 -0.00000322  0.36055061
  -0.00000635  0.50000082  0.36055053
   0.49999804  0.00000553  0.36055085
   0.50000437  0.49999563  0.36055069
   0.33323588  0.16660006  0.58295286
   0.33352764  0.66677777  0.58293775
   0.83336181  0.16625380  0.58291066
   0.83341409  0.66719659  0.58289086
   0.00003806  0.00002405  0.52877979
   0.00001444  0.50000460  0.52875447
   0.49997886 -0.00000510  0.52879934
   0.49997406  0.49997856  0.52879193
   0.33333597  0.16666647  0.41706353
   0.33333212  0.66666691  0.41706324
   0.83333222  0.16666877  0.41706276
   0.83333375  0.66666332  0.41706207
   0.16671405  0.33319032  0.63956790
   0.16657679  0.83336717  0.63952624
   0.67063689  0.33604673  0.63787019
   0.66665820  0.83334576  0.63958554
   0.50076603  0.22281185  0.76518708
   0.49522513  0.21879322  0.72486917
Direct configuration=    10
   0.16666170  0.33333377  0.38830728
   0.16666181  0.83332763  0.38830684
   0.66667340  0.33333713  0.38830399
   0.66666897  0.83333304  0.38830969
  -0.00002473 -0.00000879  0.61161565
  -0.00004821  0.50003840  0.61150916
   0.50001401 -0.00006162  0.61154294
   0.50013151  0.50023682  0.61146845
   0.33330753  0.16664213  0.49997306
   0.33329822  0.66666239  0.50002505
   0.83335532  0.16667379  0.50001073
   0.83337435  0.66669398  0.50000614
   0.16668726  0.33331840  0.47113850
   0.16668309  0.83336720  0.47113731
   0.66663171  0.33331936  0.47113679
   0.66666545  0.83332947  0.47114033
   0.00000327 -0.00000224  0.36041901
  -0.00000523  0.50000064  0.36041875
   0.49999756  0.00000489  0.36041940
   0.50000288  0.49999529  0.36041909
   0.33326420  0.16658715  0.58304438
   0.33364108  0.66686229  0.58300894
   0.83335331  0.16606007  0.58296354
   0.83346095  0.66745047  0.58292811
   0.00007512  0.00004441  0.52882732
  -0.00001291  0.49999235  0.52880095
   0.49997280  0.00002551  0.52887025
   0.49997062  0.49994352  0.52885310
   0.33333501  0.16666738  0.41696431
   0.33333107  0.66666508  0.41696213
   0.83333374  0.16666966  0.41696237
   0.83333352  0.66666303  0.41696178
   0.16677282  0.33313272  0.63970140
   0.16664685  0.83347630  0.63965689
   0.67096714  0.33627408  0.63783722
   0.66662160  0.83335655  0.63972636
   0.50094017  0.22294759  0.76537735
   0.49425304  0.21808415  0.72506146
Direct configuration=    11
   0.16665589  0.33333719  0.38836215
   0.16666470  0.83332298  0.38836034
   0.66667862  0.33333319  0.38835493
   0.66666565  0.83333833  0.38836540
  -0.00010111  0.00000469  0.61164709
   0.00076325  0.50043167  0.61141839
   0.49985680 -0.00072525  0.61144289
   0.49994075  0.50078544  0.61137237
   0.33325628  0.16660459  0.49995751
   0.33326894  0.66665878  0.50005951
   0.83338995  0.16666212  0.50002347
   0.83342689  0.66675209  0.50001439
   0.16670254  0.33330512  0.47098412
   0.16669700  0.83339550  0.47098360
   0.66660271  0.33330627  0.47098635
   0.66666491  0.83332784  0.47098725
   0.00000428 -0.00000027  0.36015582
  -0.00000297  0.50000027  0.36015519
   0.49999660  0.00000359  0.36015650
   0.49999989  0.49999461  0.36015590
   0.33332083  0.16656133  0.58322743
   0.33386794  0.66703132  0.58315133
   0.83333631  0.16567263  0.58306928
   0.83355468  0.66795824  0.58300262
   0.00014923  0.00008515  0.52892237
  -0.00006761  0.49996784  0.52889390
   0.49996068  0.00008674  0.52901208
   0.49996374  0.49987342  0.52897542
   0.33333309  0.16666921  0.41676585
   0.33332898  0.66666141  0.41675991
   0.83333678  0.16667143  0.41676159
   0.83333308  0.66666245  0.41676120
   0.16689038  0.33301754  0.63996840
   0.16678699  0.83369454  0.63991820
   0.67162762  0.33672879  0.63777129
   0.66654838  0.83337812  0.64000799
   0.50128845  0.22321909  0.76575788
   0.49230886  0.21666602  0.72544605
Direct configuration=    12
   0.16665492  0.33333924  0.38831745
   0.16666407  0.83332014  0.38831502
   0.66668093  0.33333408  0.38831097
   0.66666433  0.83333806  0.38832158
  -0.00007793  0.00002336  0.61169439
   0.00085445  0.50048626  0.61144312
   0.49987904 -0.00074254  0.61146576
   0.49996671  0.50084681  0.61139499
   0.33323703  0.16659364  0.49995370
   0.33327509  0.66666319  0.50003593
   0.83339817  0.16664060  0.50001778
   0.83343811  0.66678528  0.50000818
   0.16671285  0.33331797  0.47098630
   0.16671050  0.83339483  0.47098573
   0.66659554  0.33330032  0.47098818
   0.66664846  0.83332205  0.47099108
   0.00000482  0.00000037  0.36009170
  -0.00000202  0.50000031  0.36009065
   0.49999589  0.00000294  0.36009227
   0.49999862  0.49999420  0.36009167
   0.33331707  0.16654911  0.58327155
   0.33392723  0.66707375  0.58318179
   0.83336464  0.16555236  0.58308982
   0.83361120  0.66815138  0.58301415
   0.00018654  0.00011186  0.52890680
  -0.00004805  0.49997484  0.52888547
   0.49994172  0.00007049  0.52901080
   0.49994096  0.49986916  0.52897021
   0.33333060  0.16666791  0.41672205
   0.33332699  0.66666052  0.41671914
   0.83333859  0.16667197  0.41671818
   0.83333507  0.66666381  0.41671727
   0.16693896  0.33302949  0.64003181
   0.16684027  0.83372751  0.63998064
   0.67178798  0.33683964  0.63775976
   0.66649432  0.83336814  0.64008170
   0.50140806  0.22331253  0.76588289
   0.49165828  0.21618837  0.72557554
Direct configuration=    13
   0.16665200  0.33334541  0.38818336
   0.16666218  0.83331164  0.38817905
   0.66668786  0.33333674  0.38817909
   0.66666036  0.83333724  0.38819012
  -0.00000840  0.00007940  0.61183628
   0.00112807  0.50065002  0.61151730
   0.49994575 -0.00079438  0.61153437
   0.50004458  0.50103094  0.61146283
   0.33317926  0.16656081  0.49994226
   0.33329352  0.66667642  0.49996519
   0.83342283  0.16657605  0.50000071
   0.83347176  0.66688483  0.49998953
   0.16674378  0.33335653  0.47099282
   0.16675100  0.83339279  0.47099212
   0.66657401  0.33328244  0.47099366
   0.66659913  0.83330470  0.47100259
   0.00000642  0.00000229  0.35989932
   0.00000085  0.50000045  0.35989701
   0.49999375  0.00000099  0.35989960
   0.49999481  0.49999299  0.35989899
   0.33330580  0.16651247  0.58340390
   0.33410511  0.66720104  0.58327314
   0.83344965  0.16519157  0.58315145
   0.83378075  0.66873082  0.58304871
   0.00029848  0.00019202  0.52886010
   0.00001064  0.49999586  0.52886017
   0.49988483  0.00002175  0.52900696
   0.49987261  0.49985638  0.52895457
   0.33332314  0.16666404  0.41659063
   0.33332101  0.66665785  0.41659684
   0.83334402  0.16667358  0.41658797
   0.83334103  0.66666788  0.41658548
   0.16708472  0.33306533  0.64022204
   0.16700012  0.83382642  0.64016794
   0.67226904  0.33717219  0.63772517
   0.66633213  0.83333821  0.64030285
   0.50176687  0.22359286  0.76625790
   0.48970653  0.21475544  0.72596399
Direct configuration=    14
   0.16664617  0.33335774  0.38791517
   0.16665840  0.83329463  0.38790710
   0.66670171  0.33334207  0.38791533
   0.66665243  0.83333560  0.38792719
   0.00013067  0.00019147  0.61212005
   0.00167530  0.50097755  0.61166565
   0.50007916 -0.00089808  0.61167158
   0.50020032  0.50139920  0.61159851
   0.33306372  0.16649516  0.49991940
   0.33333038  0.66670288  0.49982371
   0.83347215  0.16644694  0.49996658
   0.83353905  0.66708395  0.49995223
   0.16680565  0.33343364  0.47100587
   0.16683201  0.83338873  0.47100490
   0.66653094  0.33324670  0.47100461
   0.66650047  0.83326999  0.47102561
   0.00000963  0.00000614  0.35951456
   0.00000658  0.50000071  0.35950973
   0.49998948 -0.00000292  0.35951425
   0.49998719  0.49999057  0.35951362
   0.33328325  0.16643917  0.58366862
   0.33446086  0.66745561  0.58345586
   0.83361966  0.16446999  0.58327472
   0.83411984  0.66988970  0.58311784
   0.00052236  0.00035233  0.52876669
   0.00012802  0.50003789  0.52880958
   0.49977105 -0.00007574  0.52899928
   0.49973591  0.49983080  0.52892328
   0.33330822  0.16665628  0.41632781
   0.33330906  0.66665250  0.41635223
   0.83335489  0.16667681  0.41632756
   0.83335295  0.66667604  0.41632189
   0.16737624  0.33313701  0.64060249
   0.16731982  0.83402423  0.64054254
   0.67323118  0.33783728  0.63765598
   0.66600774  0.83327834  0.64074515
   0.50248451  0.22415351  0.76700793
   0.48580304  0.21188959  0.72674090
Direct configuration=    15
   0.16663451  0.33338239  0.38737880
   0.16665084  0.83326062  0.38736322
   0.66672941  0.33335272  0.38738781
   0.66663656  0.83333233  0.38740134
   0.00040880  0.00041561  0.61268759
   0.00276975  0.50163260  0.61196236
   0.50034599 -0.00110547  0.61194601
   0.50051181  0.50213571  0.61186986
   0.33283265  0.16636384  0.49987366
   0.33340411  0.66675580  0.49954075
   0.83357080  0.16618871  0.49989832
   0.83367364  0.66748219  0.49987764
   0.16692939  0.33358787  0.47103197
   0.16699402  0.83338059  0.47103046
   0.66644481  0.33317521  0.47102652
   0.66630314  0.83320057  0.47107164
   0.00001605  0.00001383  0.35874504
   0.00001804  0.50000125  0.35873516
   0.49998093 -0.00001073  0.35874354
   0.49997194  0.49998572  0.35874290
   0.33323815  0.16629258  0.58419805
   0.33517237  0.66796477  0.58382129
   0.83395969  0.16302683  0.58352124
   0.83479803  0.67220746  0.58325609
   0.00097011  0.00067296  0.52857988
   0.00036277  0.50012196  0.52870840
   0.49954350 -0.00027071  0.52898393
   0.49946251  0.49977966  0.52886072
   0.33327837  0.16664077  0.41580215
   0.33328515  0.66664180  0.41586302
   0.83337663  0.16668325  0.41580672
   0.83337680  0.66669234  0.41579471
   0.16795928  0.33328037  0.64136339
   0.16795923  0.83441986  0.64129175
   0.67515544  0.33916746  0.63751762
   0.66535897  0.83315861  0.64162974
   0.50391977  0.22527481  0.76850798
   0.47799605  0.20615787  0.72829472
Direct configuration=    16
   0.16663244  0.33337377  0.38730823
   0.16664864  0.83326723  0.38729170
   0.66672648  0.33335141  0.38732165
   0.66664339  0.83333585  0.38732997
   0.00046513  0.00045201  0.61275370
   0.00282489  0.50167645  0.61200268
   0.50040252 -0.00105704  0.61199056
   0.50057718  0.50217331  0.61191201
   0.33282675  0.16636113  0.49987551
   0.33340817  0.66675849  0.49951425
   0.83357987  0.16617436  0.49989467
   0.83368500  0.66751114  0.49987269
   0.16694110  0.33360716  0.47103097
   0.16700972  0.83337626  0.47102966
   0.66644031  0.33316997  0.47102854
   0.66628464  0.83319492  0.47107374
   0.00001451  0.00001337  0.35866749
   0.00002245  0.50000322  0.35865713
   0.49997966 -0.00001573  0.35866614
   0.49997029  0.49998935  0.35866560
   0.33322822  0.16628396  0.58424494
   0.33522800  0.66800196  0.58385129
   0.83402092  0.16290395  0.58354316
   0.83488227  0.67244204  0.58326873
   0.00103510  0.00072068  0.52855071
   0.00039229  0.50013296  0.52869922
   0.49952215 -0.00029270  0.52897383
   0.49943451  0.49977830  0.52884886
   0.33327131  0.16663674  0.41575053
   0.33328508  0.66664253  0.41581369
   0.83337989  0.16667965  0.41575600
   0.83338100  0.66669992  0.41574340
   0.16802196  0.33333267  0.64143518
   0.16801805  0.83442385  0.64136338
   0.67534376  0.33930043  0.63751587
   0.66528481  0.83313677  0.64171966
   0.50402592  0.22536072  0.76858439
   0.47716161  0.20554293  0.72856628
Direct configuration=    17
   0.16662884  0.33335877  0.38718541
   0.16664482  0.83327875  0.38716721
   0.66672139  0.33334914  0.38720649
   0.66665528  0.83334198  0.38720574
   0.00056317  0.00051537  0.61286877
   0.00292085  0.50175277  0.61207288
   0.50050091 -0.00097274  0.61206810
   0.50069095  0.50223876  0.61198536
   0.33281649  0.16635642  0.49987872
   0.33341523  0.66676316  0.49946812
   0.83359566  0.16614939  0.49988831
   0.83370478  0.66756153  0.49986408
   0.16696149  0.33364073  0.47102923
   0.16703706  0.83336873  0.47102828
   0.66643248  0.33316085  0.47103204
   0.66625244  0.83318508  0.47107739
   0.00001181  0.00001257  0.35853251
   0.00003014  0.50000666  0.35852131
   0.49997745 -0.00002443  0.35853140
   0.49996741  0.49999566  0.35853105
   0.33321095  0.16626894  0.58432655
   0.33532484  0.66806669  0.58390349
   0.83412749  0.16269008  0.58358130
   0.83502889  0.67285032  0.58329074
   0.00114821  0.00080376  0.52849994
   0.00044365  0.50015212  0.52868324
   0.49948500 -0.00033097  0.52895627
   0.49938578  0.49977594  0.52882823
   0.33325903  0.16662974  0.41566068
   0.33328497  0.66664381  0.41572783
   0.83338556  0.16667339  0.41566773
   0.83338832  0.66671310  0.41565410
   0.16813105  0.33342369  0.64156013
   0.16812044  0.83443080  0.64148806
   0.67567154  0.33953186  0.63751282
   0.66515573  0.83309874  0.64187616
   0.50421066  0.22551026  0.76871739
   0.47570924  0.20447259  0.72903892
Direct configuration=    18
   0.16662969  0.33336233  0.38721453
   0.16664573  0.83327602  0.38719673
   0.66672259  0.33334968  0.38723379
   0.66665246  0.83334053  0.38723519
   0.00053993  0.00050035  0.61284149
   0.00289810  0.50173468  0.61205624
   0.50047759 -0.00099272  0.61204972
   0.50066398  0.50222324  0.61196797
   0.33281892  0.16635754  0.49987796
   0.33341356  0.66676205  0.49947906
   0.83359191  0.16615531  0.49988982
   0.83370009  0.66754959  0.49986613
   0.16695666  0.33363277  0.47102964
   0.16703058  0.83337051  0.47102861
   0.66643433  0.33316302  0.47103121
   0.66626007  0.83318741  0.47107653
   0.00001245  0.00001276  0.35856451
   0.00002832  0.50000585  0.35855351
   0.49997798 -0.00002237  0.35856334
   0.49996809  0.49999416  0.35856295
   0.33321505  0.16627250  0.58430721
   0.33530188  0.66805135  0.58389112
   0.83410222  0.16274078  0.58357226
   0.83499413  0.67275353  0.58328552
   0.00112139  0.00078407  0.52851197
   0.00043148  0.50014758  0.52868703
   0.49949381 -0.00032190  0.52896043
   0.49939733  0.49977650  0.52883312
   0.33326194  0.16663140  0.41568198
   0.33328499  0.66664350  0.41574819
   0.83338422  0.16667487  0.41568866
   0.83338659  0.66670997  0.41567527
   0.16810519  0.33340211  0.64153050
   0.16809616  0.83442915  0.64145850
   0.67559383  0.33947699  0.63751354
   0.66518633  0.83310775  0.64183906
   0.50416686  0.22547481  0.76868586
   0.47605355  0.20472633  0.72892687
Direct configuration=    19
   0.16662948  0.33336143  0.38720717
   0.16664550  0.83327671  0.38718927
   0.66672229  0.33334954  0.38722689
   0.66665318  0.83334090  0.38722774
   0.00054580  0.00050414  0.61284838
   0.00290385  0.50173925  0.61206044
   0.50048348 -0.00098767  0.61205437
   0.50067080  0.50222716  0.61197236
   0.33281831  0.16635726  0.49987815
   0.33341398  0.66676233  0.49947629
   0.83359286  0.16615381  0.49988943
   0.83370127  0.66755260  0.49986561
   0.16695788  0.33363479  0.47102954
   0.16703222  0.83337006  0.47102852
   0.66643386  0.33316247  0.47103142
   0.66625814  0.83318682  0.47107675
   0.00001229  0.00001271  0.35855642
   0.00002878  0.50000606  0.35854537
   0.49997784 -0.00002289  0.35855527
   0.49996792  0.49999454  0.35855489
   0.33321401  0.16627160  0.58431210
   0.33530769  0.66805523  0.58389425
   0.83410861  0.16272797  0.58357454
   0.83500292  0.67277799  0.58328684
   0.00112817  0.00078904  0.52850893
   0.00043455  0.50014873  0.52868607
   0.49949158 -0.00032419  0.52895938
   0.49939442  0.49977636  0.52883189
   0.33326120  0.16663098  0.41567660
   0.33328499  0.66664358  0.41574304
   0.83338456  0.16667450  0.41568337
   0.83338703  0.66671076  0.41566992
   0.16811172  0.33340757  0.64153799
   0.16810230  0.83442957  0.64146597
   0.67561347  0.33949086  0.63751336
   0.66517860  0.83310547  0.64184843
   0.50417793  0.22548377  0.76869383
   0.47596654  0.20466221  0.72895519
Direct configuration=    20
   0.16662815  0.33334595  0.38718286
   0.16664362  0.83329063  0.38716461
   0.66671405  0.33334589  0.38720783
   0.66666462  0.83334621  0.38720058
   0.00058839  0.00052678  0.61286222
   0.00284631  0.50171868  0.61207404
   0.50052562 -0.00090117  0.61207752
   0.50071854  0.50218915  0.61199252
   0.33284231  0.16637171  0.49988612
   0.33340877  0.66675853  0.49947840
   0.83359288  0.16616974  0.49989300
   0.83369979  0.66753921  0.49986805
   0.16695654  0.33364038  0.47102134
   0.16703081  0.83336452  0.47102079
   0.66644024  0.33316562  0.47102877
   0.66626069  0.83318884  0.47107046
   0.00000879  0.00001065  0.35855070
   0.00003298  0.50000853  0.35853994
   0.49997710 -0.00002901  0.35855010
   0.49996765  0.50000023  0.35854990
   0.33320808  0.16628076  0.58430696
   0.33528850  0.66803787  0.58388731
   0.83414905  0.16275516  0.58357323
   0.83502884  0.67278923  0.58328739
   0.00116061  0.00081369  0.52849485
   0.00044095  0.50015156  0.52868975
   0.49949447 -0.00032536  0.52894957
   0.49939443  0.49978033  0.52882613
   0.33325500  0.16662716  0.41567420
   0.33328830  0.66664612  0.41573820
   0.83338581  0.16666796  0.41568155
   0.83338937  0.66671932  0.41566819
   0.16812081  0.33346421  0.64153558
   0.16809751  0.83437908  0.64146505
   0.67561252  0.33949449  0.63753291
   0.66516322  0.83309126  0.64185492
   0.50422144  0.22551853  0.76873468
   0.47575325  0.20450159  0.72899578
Direct configuration=    21
   0.16662416  0.33329953  0.38710993
   0.16663799  0.83333239  0.38709064
   0.66668934  0.33333495  0.38715063
   0.66669897  0.83336216  0.38711910
   0.00071614  0.00059469  0.61290372
   0.00267369  0.50165699  0.61211485
   0.50065203 -0.00064166  0.61214698
   0.50086177  0.50207513  0.61205301