CeO2                                    
           1
     7.707464    0.000000    0.000000
    -3.853732    6.674860    0.000000
     0.000000    0.000000   28.319031
   Ce   O    C    O 
  12  24   1   1
Direct configuration=     1
   0.16666700  0.33333300  0.38888900
   0.16666700  0.83333300  0.38888900
   0.66666700  0.33333300  0.38888900
   0.66666700  0.83333300  0.38888900
   0.00000000  0.00000000  0.61111100
   0.00000000  0.50000000  0.61111100
   0.50000000  0.00000000  0.61111100
   0.50000000  0.50000000  0.61111100
   0.33333300  0.16666700  0.50000000
   0.33333300  0.66666700  0.50000000
   0.83333300  0.16666700  0.50000000
   0.83333300  0.66666700  0.50000000
   0.16666700  0.33333300  0.47222200
   0.16666700  0.83333300  0.47222200
   0.66666700  0.33333300  0.47222200
   0.66666700  0.83333300  0.47222200
   0.00000000  0.00000000  0.36111100
   0.00000000  0.50000000  0.36111100
   0.50000000  0.00000000  0.36111100
   0.50000000  0.50000000  0.36111100
   0.33333300  0.16666700  0.58333300
   0.33333300  0.66666700  0.58333300
   0.83333300  0.16666700  0.58333300
   0.83333300  0.66666700  0.58333300
   0.00000000  0.00000000  0.52777800
   0.00000000  0.50000000  0.52777800
   0.50000000  0.00000000  0.52777800
   0.50000000  0.50000000  0.52777800
   0.33333300  0.16666700  0.41666700
   0.33333300  0.66666700  0.41666700
   0.83333300  0.16666700  0.41666700
   0.83333300  0.66666700  0.41666700
   0.16666700  0.33333300  0.63888900
   0.16666700  0.83333300  0.63888900
   0.66666700  0.33333300  0.63888900
   0.66666700  0.83333300  0.63888900
   0.50000000  0.11111100  0.72389500
   0.35183200  0.11111100  0.72389500
Direct configuration=     2
   0.16666368  0.33333885  0.38861368
   0.16666610  0.83332594  0.38861209
   0.66667170  0.33333377  0.38861211
   0.66666285  0.83333314  0.38861266
  -0.00014646 -0.00000793  0.61145353
   0.00039432  0.50016830  0.61137493
   0.50022815 -0.00061598  0.61125406
   0.49980983  0.50043046  0.61130638
   0.33332335  0.16666964  0.49999821
   0.33332377  0.66665682  0.50001336
   0.83334688  0.16667453  0.50000819
   0.83333620  0.66666684  0.50000441
   0.16666640  0.33333831  0.47179469
   0.16666973  0.83333034  0.47179352
   0.66666794  0.33333132  0.47179628
   0.66666189  0.83333287  0.47179440
  -0.00000205 -0.00000139  0.36090609
   0.00000396  0.50000284  0.36090625
   0.49999729 -0.00000547  0.36090624
   0.49999870  0.50000418  0.36090604
   0.33344280  0.16671791  0.58313074
   0.33335098  0.66666362  0.58310668
   0.83327096  0.16670400  0.58310827
   0.83325408  0.66654333  0.58311756
  -0.00000126  0.00000298  0.52819209
  -0.00000869  0.49999051  0.52820111
   0.50000861  0.00000443  0.52820126
   0.50000068  0.49999409  0.52820583
   0.33333061  0.16666548  0.41688501
   0.33333189  0.66666661  0.41688501
   0.83333364  0.16666620  0.41688559
   0.83333445  0.66666887  0.41688466
   0.16679291  0.33350926  0.63904235
   0.16629640  0.83267767  0.63891509
   0.66691046  0.33393540  0.63901103
   0.66658071  0.83306857  0.63901050
   0.50151980  0.11063201  0.72404858
   0.35013876  0.11180368  0.72429155
Direct configuration=     3
   0.16666537  0.33333588  0.38875364
   0.16666656  0.83332953  0.38875286
   0.66666931  0.33333338  0.38875287
   0.66666496  0.83333307  0.38875314
  -0.00007201 -0.00000390  0.61127940
   0.00019387  0.50008274  0.61124076
   0.50011217 -0.00030284  0.61118133
   0.49990650  0.50021163  0.61120706
   0.33332825  0.16666830  0.49999912
   0.33332846  0.66666200  0.50000657
   0.83333982  0.16667070  0.50000403
   0.83333457  0.66666692  0.50000217
   0.16666670  0.33333561  0.47201192
   0.16666834  0.83333169  0.47201134
   0.66666746  0.33333217  0.47201270
   0.66666449  0.83333293  0.47201177
  -0.00000101 -0.00000068  0.36101026
   0.00000194  0.50000140  0.36101034
   0.49999867 -0.00000269  0.36101033
   0.49999936  0.50000205  0.36101023
   0.33338698  0.16669203  0.58323356
   0.33334184  0.66666534  0.58322173
   0.83330250  0.16668519  0.58322251
   0.83329420  0.66660620  0.58322708
  -0.00000062  0.00000146  0.52798158
  -0.00000427  0.49999534  0.52798602
   0.50000424  0.00000218  0.52798609
   0.50000033  0.49999709  0.52798834
   0.33333183  0.16666625  0.41677418
   0.33333245  0.66666681  0.41677418
   0.83333331  0.16666661  0.41677447
   0.83333371  0.66666792  0.41677401
   0.16672890  0.33341965  0.63896439
   0.16648480  0.83301081  0.63890183
   0.66678669  0.33362917  0.63894900
   0.66662458  0.83320299  0.63894874
   0.50074720  0.11087551  0.72397050
   0.35099953  0.11145155  0.72408996
Direct configuration=     4
   0.16666462  0.33333704  0.38868111
   0.16666622  0.83332801  0.38868007
   0.66667034  0.33333362  0.38868015
   0.66666415  0.83333308  0.38868046
  -0.00010225 -0.00000672  0.61136856
   0.00028916  0.50012767  0.61131070
   0.50017272 -0.00045594  0.61121752
   0.49985918  0.50031477  0.61125818
   0.33332366  0.16666834  0.49999944
   0.33332442  0.66665798  0.50000817
   0.83334569  0.16667333  0.50000551
   0.83333693  0.66666803  0.50000384
   0.16666713  0.33333733  0.47189638
   0.16666994  0.83333132  0.47189557
   0.66666703  0.33333110  0.47189752
   0.66666233  0.83333272  0.47189622
  -0.00000143 -0.00000098  0.36095127
   0.00000265  0.50000190  0.36095138
   0.49999811 -0.00000376  0.36095138
   0.49999908  0.50000282  0.36095124
   0.33341294  0.16670186  0.58318300
   0.33335075  0.66666666  0.58316371
   0.83328570  0.16668938  0.58316621
   0.83327354  0.66657928  0.58317218
  -0.00000102  0.00000257  0.52809462
  -0.00000430  0.49999354  0.52810030
   0.50000626  0.00000092  0.52810069
   0.49999908  0.49999666  0.52810376
   0.33333145  0.16666597  0.41682884
   0.33333212  0.66666664  0.41682891
   0.83333338  0.16666654  0.41682921
   0.83333396  0.66666804  0.41682851
   0.16676115  0.33346600  0.63900871
   0.16638349  0.83283032  0.63891060
   0.66685337  0.33379002  0.63898523
   0.66660220  0.83313382  0.63898476
   0.50051161  0.11074705  0.72401376
   0.35118663  0.11164503  0.72420232
Direct configuration=     5
   0.16666237  0.33334052  0.38846354
   0.16666521  0.83332347  0.38846170
   0.66667342  0.33333436  0.38846199
   0.66666174  0.83333312  0.38846243
  -0.00019299 -0.00001517  0.61163602
   0.00057506  0.50026245  0.61152051
   0.50035438 -0.00091522  0.61132608
   0.49971723  0.50062417  0.61141154
   0.33330989  0.16666846  0.50000040
   0.33331231  0.66664592  0.50001299
   0.83336329  0.16668122  0.50000995
   0.83334400  0.66667134  0.50000884
   0.16666841  0.33334249  0.47154978
   0.16667475  0.83333021  0.47154827
   0.66666572  0.33332790  0.47155198
   0.66665587  0.83333206  0.47154958
  -0.00000271 -0.00000186  0.36077433
   0.00000478  0.50000342  0.36077450
   0.49999644 -0.00000696  0.36077453
   0.49999823  0.50000510  0.36077425
   0.33349080  0.16673134  0.58303131
   0.33337748  0.66667064  0.58298966
   0.83323529  0.16670195  0.58299728
   0.83321155  0.66649854  0.58300748
  -0.00000223  0.00000590  0.52843374
  -0.00000438  0.49998816  0.52844314
   0.50001233 -0.00000288  0.52844448
   0.49999530  0.49999537  0.52845004
   0.33333031  0.16666512  0.41699283
   0.33333110  0.66666614  0.41699308
   0.83333358  0.16666635  0.41699342
   0.83333471  0.66666842  0.41699200
   0.16685790  0.33360505  0.63914167
   0.16607957  0.83228885  0.63893693
   0.66705341  0.33427257  0.63909395
   0.66653506  0.83292631  0.63909284
   0.49980487  0.11036168  0.72414353
   0.35174794  0.11222548  0.72453940
Direct configuration=     6
   0.16665787  0.33334750  0.38802840
   0.16666319  0.83331439  0.38802496
   0.66667959  0.33333584  0.38802567
   0.66665690  0.83333321  0.38802638
  -0.00037445 -0.00003207  0.61217094
   0.00114685  0.50053200  0.61194014
   0.50071770 -0.00183380  0.61154319
   0.49943331  0.50124298  0.61171827
   0.33328236  0.16666871  0.50000233
   0.33328807  0.66662180  0.50002262
   0.83339848  0.16669699  0.50001882
   0.83335815  0.66667795  0.50001885
   0.16667096  0.33335280  0.47085658
   0.16668437  0.83332799  0.47085365
   0.66666311  0.33332149  0.47086091
   0.66664294  0.83333075  0.47085628
  -0.00000527 -0.00000362  0.36042045
   0.00000904  0.50000647  0.36042075
   0.49999309 -0.00001338  0.36042083
   0.49999652  0.50000967  0.36042029
   0.33364653  0.16679030  0.58272793
   0.33343095  0.66667861  0.58264156
   0.83313447  0.16672707  0.58265943
   0.83308759  0.66633706  0.58267808
  -0.00000464  0.00001255  0.52911197
  -0.00000455  0.49997739  0.52912881
   0.50002448 -0.00001046  0.52913207
   0.49998776  0.49999278  0.52914258
   0.33332804  0.16666341  0.41732080
   0.33332907  0.66666514  0.41732142
   0.83333397  0.16666596  0.41732186
   0.83333621  0.66666918  0.41731899
   0.16705140  0.33388315  0.63940760
   0.16547174  0.83120590  0.63898959
   0.66745348  0.33523768  0.63931138
   0.66640080  0.83251129  0.63930900
   0.49839138  0.10959094  0.72440308
   0.35287056  0.11338637  0.72521355
Direct configuration=     7
   0.16666104  0.33334258  0.38833508
   0.16666461  0.83332079  0.38833276
   0.66667524  0.33333480  0.38833317
   0.66666031  0.83333315  0.38833370
  -0.00024656 -0.00002016  0.61179394
   0.00074387  0.50034203  0.61164440
   0.50046164 -0.00118642  0.61139018
   0.49963341  0.50080686  0.61150210
   0.33330176  0.16666854  0.50000097
   0.33330515  0.66663880  0.50001583
   0.83337368  0.16668588  0.50001257
   0.83334818  0.66667329  0.50001180
   0.16666916  0.33334553  0.47134513
   0.16667759  0.83332955  0.47134320
   0.66666495  0.33332601  0.47134796
   0.66665205  0.83333168  0.47134489
  -0.00000347 -0.00000238  0.36066985
   0.00000604  0.50000432  0.36067006
   0.49999545 -0.00000886  0.36067011
   0.49999772  0.50000645  0.36066975
   0.33353678  0.16674874  0.58294174
   0.33339327  0.66667300  0.58288689
   0.83320552  0.16670936  0.58289754
   0.83317496  0.66645087  0.58291023
  -0.00000294  0.00000786  0.52863397
  -0.00000443  0.49998498  0.52864557
   0.50001592 -0.00000512  0.52864748
   0.49999308  0.49999460  0.52865449
   0.33332964  0.16666461  0.41708966
   0.33333050  0.66666585  0.41709001
   0.83333369  0.16666623  0.41709039
   0.83333516  0.66666865  0.41708854
   0.16691503  0.33368715  0.63922018
   0.16590012  0.83196913  0.63895248
   0.66717152  0.33455750  0.63915814
   0.66649542  0.83280378  0.63915666
   0.49938757  0.11013414  0.72422016
   0.35207937  0.11256821  0.72473843
Direct configuration=     8
   0.16666107  0.33334118  0.38833754
   0.16666372  0.83332177  0.38833554
   0.66667457  0.33333526  0.38833640
   0.66666150  0.83333293  0.38833653
  -0.00019919 -0.00002833  0.61178073
   0.00065224  0.50032694  0.61164487
   0.50048739 -0.00109703  0.61138083
   0.49967355  0.50072915  0.61149642
   0.33328946  0.16666708  0.50000692
   0.33329391  0.66662709  0.50000248
   0.83339000  0.16669237  0.50000897
   0.83335548  0.66667889  0.50001649
   0.16667141  0.33334920  0.47132368
   0.16668353  0.83333005  0.47132207
   0.66666216  0.33332185  0.47132656
   0.66664629  0.83333115  0.47132413
  -0.00000348 -0.00000207  0.36063500
   0.00000573  0.50000381  0.36063505
   0.49999555 -0.00000857  0.36063521
   0.49999738  0.50000604  0.36063489
   0.33351849  0.16672156  0.58296503
   0.33342025  0.66668848  0.58290117
   0.83320107  0.16667348  0.58292076
   0.83317674  0.66648943  0.58292499
  -0.00000599  0.00001179  0.52865888
   0.00001229  0.49998778  0.52866375
   0.50001659 -0.00002353  0.52866629
   0.49998185  0.50000433  0.52867052
   0.33332938  0.16666494  0.41706555
   0.33333003  0.66666516  0.41706648
   0.83333421  0.16666662  0.41706629
   0.83333494  0.66666839  0.41706408
   0.16691216  0.33368945  0.63925177
   0.16588251  0.83192027  0.63897085
   0.66719341  0.33459204  0.63918095
   0.66649596  0.83280286  0.63918574
   0.49928288  0.11005625  0.72424183
   0.35215295  0.11268393  0.72480476
Direct configuration=     9
   0.16666115  0.33333698  0.38834493
   0.16666104  0.83332470  0.38834388
   0.66667257  0.33333666  0.38834608
   0.66666508  0.83333228  0.38834504
  -0.00005708 -0.00005286  0.61174110
   0.00037737  0.50028168  0.61164629
   0.50056465 -0.00082887  0.61135278
   0.49979398  0.50049602  0.61147938
   0.33325254  0.16666272  0.50002475
   0.33326020  0.66659198  0.49996242
   0.83343897  0.16671186  0.49999817
   0.83337737  0.66669568  0.50003057
   0.16667814  0.33336020  0.47125936
   0.16670134  0.83333155  0.47125868
   0.66665379  0.33330939  0.47126238
   0.66662899  0.83332957  0.47126182
  -0.00000351 -0.00000114  0.36053044
   0.00000480  0.50000229  0.36053001
   0.49999586 -0.00000772  0.36053050
   0.49999634  0.50000479  0.36053029
   0.33346365  0.16664001  0.58303488
   0.33350122  0.66673494  0.58294401
   0.83318772  0.16656583  0.58299043
   0.83318211  0.66660511  0.58296926
  -0.00001512  0.00002360  0.52873360
   0.00006245  0.49999618  0.52871831
   0.50001862 -0.00007879  0.52872271
   0.49994815  0.50003352  0.52871860
   0.33332859  0.16666591  0.41699324
   0.33332862  0.66666310  0.41699589
   0.83333576  0.16666779  0.41699401
   0.83333429  0.66666761  0.41699072
   0.16690357  0.33369634  0.63934652
   0.16582967  0.83177370  0.63902594
   0.66725907  0.33469564  0.63924940
   0.66649756  0.83280008  0.63927300
   0.49896881  0.10982260  0.72430685
   0.35237370  0.11303107  0.72500376
Direct configuration=    10
   0.16666130  0.33332859  0.38835971
   0.16665568  0.83333056  0.38836056
   0.66666855  0.33333944  0.38836543
   0.66667225  0.83333099  0.38836205
   0.00022714 -0.00010191  0.61166185
  -0.00017239  0.50019115  0.61164912
   0.50071915 -0.00029255  0.61129668
   0.50003484  0.50002976  0.61144531
   0.33317871  0.16665399  0.50006040
   0.33319277  0.66652176  0.49988230
   0.83353692  0.16675083  0.49997658
   0.83342115  0.66672928  0.50005873
   0.16669162  0.33338221  0.47113070
   0.16673695  0.83333455  0.47113191
   0.66663704  0.33328446  0.47113401
   0.66659441  0.83332640  0.47113722
  -0.00000357  0.00000073  0.36032132
   0.00000294  0.49999925  0.36031993
   0.49999647 -0.00000603  0.36032109
   0.49999425  0.50000229  0.36032110
   0.33335396  0.16647691  0.58317460
   0.33366314  0.66682786  0.58302969
   0.83316101  0.16635054  0.58312976
   0.83319284  0.66683647  0.58305780
  -0.00003340  0.00004720  0.52888305
   0.00016276  0.50001297  0.52882741
   0.50002267 -0.00018931  0.52883556
   0.49988077  0.50009189  0.52881476
   0.33332700  0.16666786  0.41684860
   0.33332580  0.66665897  0.41685471
   0.83333886  0.16667012  0.41684943
   0.83333298  0.66666606  0.41684401
   0.16688639  0.33371012  0.63953603
   0.16572400  0.83148056  0.63913613
   0.66739039  0.33490286  0.63938628
   0.66650075  0.83279452  0.63944751
   0.49834069  0.10935529  0.72443690
   0.35281519  0.11372536  0.72540177
Direct configuration=    11
   0.16666159  0.33332585  0.38835221
   0.16665419  0.83333275  0.38835385
   0.66666709  0.33334013  0.38835955
   0.66667463  0.83333078  0.38835548
   0.00025502 -0.00010799  0.61166047
  -0.00022523  0.50018255  0.61165574
   0.50073968 -0.00024442  0.61129648
   0.50005836  0.49998510  0.61144886
   0.33317345  0.16665312  0.50006286
   0.33318581  0.66651481  0.49987435
   0.83354602  0.16675580  0.49997349
   0.83342483  0.66673097  0.50006071
   0.16669219  0.33338116  0.47111773
   0.16674037  0.83333759  0.47111964
   0.66663392  0.33328077  0.47112211
   0.66659347  0.83332757  0.47112479
  -0.00000355  0.00000126  0.36029022
   0.00000319  0.49999884  0.36028878
   0.49999650 -0.00000618  0.36029006
   0.49999356  0.50000212  0.36029003
   0.33334169  0.16645220  0.58319477
   0.33368699  0.66684091  0.58304160
   0.83315642  0.16632143  0.58314977
   0.83319389  0.66686841  0.58306943
  -0.00003173  0.00005281  0.52889770
   0.00017123  0.50001266  0.52883695
   0.50002518 -0.00019784  0.52884467
   0.49987185  0.50009286  0.52882169
   0.33332598  0.16666807  0.41682756
   0.33332486  0.66665781  0.41683277
   0.83334021  0.16667073  0.41682789
   0.83333326  0.66666625  0.41682247
   0.16688342  0.33370804  0.63956359
   0.16570814  0.83143967  0.63915315
   0.66740966  0.33493461  0.63940664
   0.66650508  0.83279468  0.63947289
   0.49839014  0.10926725  0.72445820
   0.35273064  0.11384886  0.72547085
Direct configuration=    12
   0.16666182  0.33332356  0.38834592
   0.16665294  0.83333457  0.38834822
   0.66666587  0.33334071  0.38835462
   0.66667663  0.83333061  0.38834997
   0.00027839 -0.00011309  0.61165931
  -0.00026952  0.50017534  0.61166129
   0.50075688 -0.00020408  0.61129631
   0.50007807  0.49994767  0.61145184
   0.33316904  0.16665239  0.50006492
   0.33317997  0.66650899  0.49986767
   0.83355365  0.16675997  0.49997089
   0.83342792  0.66673239  0.50006238
   0.16669267  0.33338028  0.47110687
   0.16674323  0.83334015  0.47110936
   0.66663131  0.33327767  0.47111214
   0.66659268  0.83332855  0.47111438
  -0.00000354  0.00000170  0.36026415
   0.00000340  0.49999851  0.36026267
   0.49999652 -0.00000630  0.36026405
   0.49999297  0.50000198  0.36026399
   0.33333140  0.16643149  0.58321168
   0.33370697  0.66685185  0.58305158
   0.83315258  0.16629703  0.58316655
   0.83319478  0.66689518  0.58307917
  -0.00003034  0.00005751  0.52890997
   0.00017832  0.50001241  0.52884495
   0.50002729 -0.00020499  0.52885231
   0.49986438  0.50009367  0.52882749
   0.33332512  0.16666825  0.41680993
   0.33332408  0.66665683  0.41681438
   0.83334134  0.16667123  0.41680984
   0.83333350  0.66666642  0.41680442
   0.16688093  0.33370629  0.63958670
   0.16569486  0.83140540  0.63916741
   0.66742582  0.33496122  0.63942370
   0.66650871  0.83279481  0.63949416
   0.49843158  0.10919347  0.72447606
   0.35265977  0.11395237  0.72552875
Direct configuration=    13
   0.16666230  0.33331898  0.38833333
   0.16665044  0.83333823  0.38833697
   0.66666342  0.33334187  0.38834475
   0.66668063  0.83333027  0.38833896
   0.00032512 -0.00012329  0.61165700
  -0.00035810  0.50016093  0.61167240
   0.50079127 -0.00012341  0.61129597
   0.50011750  0.49987281  0.61145779
   0.33316023  0.16665093  0.50006904
   0.33316831  0.66649734  0.49985433
   0.83356891  0.16676831  0.49996570
   0.83343410  0.66673523  0.50006570
   0.16669363  0.33337852  0.47108513
   0.16674896  0.83334525  0.47108880
   0.66662609  0.33327147  0.47109221
   0.66659111  0.83333051  0.47109354
  -0.00000351  0.00000258  0.36021200
   0.00000381  0.49999783  0.36021046
   0.49999656 -0.00000656  0.36021204
   0.49999181  0.50000170  0.36021192
   0.33331082  0.16639006  0.58324550
   0.33374694  0.66687372  0.58307155
   0.83314489  0.16624823  0.58320009
   0.83319654  0.66694872  0.58309867
  -0.00002755  0.00006692  0.52893451
   0.00019250  0.50001190  0.52886094
   0.50003150 -0.00021929  0.52886758
   0.49984943  0.50009529  0.52883910
   0.33332340  0.16666860  0.41677466
   0.33332251  0.66665488  0.41677761
   0.83334361  0.16667224  0.41677373
   0.83333398  0.66666675  0.41676832
   0.16687595  0.33370280  0.63963290
   0.16566829  0.83133686  0.63919594
   0.66745813  0.33501445  0.63945783
   0.66651596  0.83279508  0.63953670
   0.49851448  0.10904590  0.72451177
   0.35251803  0.11415939  0.72564454
Direct configuration=    14
   0.16666292  0.33331570  0.38831282
   0.16664884  0.83334091  0.38831756
   0.66666156  0.33334253  0.38832636
   0.66668345  0.83332997  0.38831984
   0.00031398 -0.00012428  0.61167497
  -0.00033229  0.50016599  0.61168638
   0.50079629 -0.00015663  0.61130955
   0.50010636  0.49989484  0.61147437
   0.33316637  0.16665088  0.50006552
   0.33316987  0.66649946  0.49985658
   0.83356492  0.16676910  0.49996418
   0.83343160  0.66673116  0.50006293
   0.16669136  0.33337066  0.47108751
   0.16674729  0.83335075  0.47109233
   0.66662385  0.33326987  0.47109687
   0.66659776  0.83333370  0.47109609
  -0.00000342  0.00000317  0.36019553
   0.00000470  0.49999761  0.36019417
   0.49999645 -0.00000727  0.36019584
   0.49999085  0.50000177  0.36019558
   0.33331265  0.16637768  0.58325395
   0.33375807  0.66687830  0.58307537
   0.83314137  0.16623958  0.58320826
   0.83319553  0.66695871  0.58310135
  -0.00001914  0.00007323  0.52893031
   0.00018520  0.50000687  0.52885591
   0.50003607 -0.00020969  0.52886060
   0.49984709  0.50008212  0.52883164
   0.33332150  0.16666862  0.41676536
   0.33332111  0.66665310  0.41676568
   0.83334593  0.16667295  0.41676344
   0.83333490  0.66666747  0.41675854
   0.16687385  0.33369527  0.63964591
   0.16565774  0.83131776  0.63920550
   0.66746853  0.33503314  0.63946896
   0.66652502  0.83279594  0.63954886
   0.49845372  0.10897749  0.72452790
   0.35255013  0.11425357  0.72569748
Direct configuration=    15
   0.16666480  0.33330587  0.38825128
   0.16664404  0.83334893  0.38825933
   0.66665597  0.33334453  0.38827116
   0.66669191  0.83332905  0.38826248
   0.00028054 -0.00012723  0.61172886
  -0.00025488  0.50018118  0.61172832
   0.50081133 -0.00025629  0.61135030
   0.50007294  0.49996092  0.61152408
   0.33318481  0.16665074  0.50005495
   0.33317457  0.66650581  0.49986331
   0.83355293  0.16677148  0.49995962
   0.83342412  0.66671896  0.50005460
   0.16668456  0.33334711  0.47109465
   0.16674227  0.83336724  0.47110291
   0.66661713  0.33326506  0.47111084
   0.66661774  0.83334330  0.47110374
  -0.00000314  0.00000492  0.36014611
   0.00000735  0.49999693  0.36014530
   0.49999612 -0.00000941  0.36014724
   0.49998798  0.50000198  0.36014658
   0.33331815  0.16634053  0.58327930
   0.33379146  0.66689202  0.58308685
   0.83313080  0.16621364  0.58323277
   0.83319249  0.66698869  0.58310942
   0.00000610  0.00009217  0.52891769
   0.00016328  0.49999177  0.52884082
   0.50004978 -0.00018090  0.52883964
   0.49984008  0.50004262  0.52880926
   0.33331581  0.16666867  0.41673747
   0.33331692  0.66664777  0.41672991
   0.83335291  0.16667507  0.41673256
   0.83333765  0.66666961  0.41672920
   0.16686755  0.33367267  0.63968494
   0.16562611  0.83126047  0.63923417
   0.66749971  0.33508922  0.63950234
   0.66655223  0.83279853  0.63958536
   0.49827147  0.10877227  0.72457632
   0.35264642  0.11453610  0.72585630
Direct configuration=    16
   0.16666855  0.33328620  0.38812820
   0.16663445  0.83336496  0.38814288
   0.66664478  0.33334852  0.38816077
   0.66670884  0.83332721  0.38814777
   0.00021366 -0.00013313  0.61183665
  -0.00010005  0.50021155  0.61181220
   0.50084141 -0.00045561  0.61143180
   0.50000612  0.50009310  0.61162351
   0.33322167  0.16665044  0.50003382
   0.33318397  0.66651852  0.49987677
   0.83352895  0.16677625  0.49995050
   0.83340915  0.66669456  0.50003794
   0.16667094  0.33330000  0.47110894
   0.16673223  0.83340022  0.47112406
   0.66660369  0.33325544  0.47113880
   0.66665768  0.83336248  0.47111903
  -0.00000259  0.00000843  0.36004728
   0.00001266  0.49999558  0.36004756
   0.49999547 -0.00001369  0.36005003
   0.49998224  0.50000240  0.36004858
   0.33332914  0.16626622  0.58333000
   0.33385825  0.66691946  0.58310980
   0.83310965  0.16616177  0.58328179
   0.83318642  0.66704865  0.58312554
   0.00005658  0.00013006  0.52889245
   0.00011944  0.49996158  0.52881063
   0.50007720 -0.00012331  0.52879772
   0.49982606  0.49996361  0.52876451
   0.33330443  0.16666878  0.41668170
   0.33330854  0.66663710  0.41665837
   0.83336686  0.16667932  0.41667080
   0.83334314  0.66667389  0.41667052
   0.16685494  0.33362746  0.63976298
   0.16556283  0.83114587  0.63929153
   0.66756208  0.33520139  0.63956912
   0.66660664  0.83280371  0.63965837
   0.49790695  0.10836182  0.72467316
   0.35283900  0.11510118  0.72617394
Direct configuration=    17
   0.16667606  0.33324686  0.38788204
   0.16661528  0.83339704  0.38790997
   0.66662241  0.33335650  0.38794000
   0.66674270  0.83332353  0.38791835
   0.00007991 -0.00014494  0.61205223
   0.00020960  0.50027230  0.61197997
   0.50090157 -0.00085424  0.61159480
   0.49987246  0.50035745  0.61182238
   0.33329539  0.16664985  0.49999156
   0.33320276  0.66654392  0.49990369
   0.83348099  0.16678578  0.49993226
   0.83337920  0.66664575  0.50000462
   0.16664371  0.33320579  0.47113751
   0.16671215  0.83346619  0.47116636
   0.66657680  0.33323621  0.47119471
   0.66673757  0.83340086  0.47114960
  -0.00000148  0.00001545  0.35984960
   0.00002328  0.49999288  0.35985208
   0.49999417 -0.00002226  0.35985563
   0.49997075  0.50000324  0.35985257
   0.33335113  0.16611761  0.58343139
   0.33399182  0.66697434  0.58315570
   0.83306736  0.16605801  0.58337983
   0.83317428  0.66716857  0.58315779
   0.00015754  0.00020583  0.52884198
   0.00003177  0.49990120  0.52875025
   0.50013204 -0.00000813  0.52871388
   0.49979801  0.49980560  0.52867501
   0.33328167  0.16666899  0.41657014
   0.33329178  0.66661576  0.41651528
   0.83339477  0.16668781  0.41654727
   0.83335414  0.66668246  0.41655316
   0.16682974  0.33353706  0.63991908
   0.16543629  0.83091668  0.63940624
   0.66768682  0.33542572  0.63970266
   0.66671547  0.83281408  0.63980437
   0.49717793  0.10754094  0.72486683
   0.35322415  0.11623132  0.72680922
Direct configuration=    18
   0.16669107  0.33316818  0.38738973
   0.16657692  0.83346120  0.38744415
   0.66657767  0.33337246  0.38749845
   0.66681042  0.83331617  0.38745950
  -0.00018760 -0.00016855  0.61248338
   0.00082891  0.50039380  0.61231549
   0.50102190 -0.00165152  0.61192079
   0.49960515  0.50088615  0.61222010
   0.33344284  0.16664867  0.49990704
   0.33324034  0.66659473  0.49995754
   0.83338507  0.16680483  0.49989578
   0.83331932  0.66654815  0.49993798
   0.16658926  0.33301736  0.47119464
   0.16667199  0.83359811  0.47125097
   0.66652304  0.33319775  0.47130654
   0.66689734  0.83347761  0.47121076
   0.00000074  0.00002949  0.35945426
   0.00004451  0.49998748  0.35946113
   0.49999157 -0.00003939  0.35946681
   0.49994777  0.50000493  0.35946056
   0.33339511  0.16582039  0.58363417
   0.33425895  0.66708410  0.58324751
   0.83298279  0.16585049  0.58357591
   0.83314998  0.66740840  0.58322230
   0.00035946  0.00035737  0.52874103
  -0.00014357  0.49978045  0.52862950
   0.50024172  0.00022223  0.52854620
   0.49974191  0.49948957  0.52849600
   0.33323615  0.16666941  0.41634704
   0.33325826  0.66657309  0.41622911
   0.83345059  0.16670479  0.41630023
   0.83337613  0.66669960  0.41631843
   0.16677932  0.33335624  0.64023127
   0.16518321  0.83045829  0.63963566
   0.66793629  0.33587437  0.63996975
   0.66693312  0.83283481  0.64009638
   0.49571988  0.10589916  0.72525417
   0.35399446  0.11849162  0.72807977
Direct configuration=    19
   0.16669082  0.33318229  0.38733301
   0.16658732  0.83345113  0.38738881
   0.66658258  0.33336650  0.38744406
   0.66679585  0.83331640  0.38740560
  -0.00017218 -0.00018143  0.61251227
   0.00080491  0.50038105  0.61234527
   0.50104803 -0.00163605  0.61195525
   0.49962648  0.50085655  0.61225202
   0.33342208  0.16664091  0.49990298
   0.33324893  0.66658282  0.49993866
   0.83340652  0.16678979  0.49988541
   0.83332024  0.66657340  0.49993094
   0.16657971  0.33301055  0.47118309
   0.16666912  0.83359584  0.47124369
   0.66653095  0.33319585  0.47129845
   0.66690765  0.83348281  0.47120191
   0.00000236  0.00002629  0.35936524
   0.00003599  0.49998631  0.35937471
   0.49999281 -0.00003153  0.35938183
   0.49995359  0.49999988  0.35937341
   0.33341555  0.16578265  0.58369156
   0.33431162  0.66709181  0.58328490
   0.83296622  0.16581737  0.58362749
   0.83313163  0.66743748  0.58325430
   0.00038510  0.00039313  0.52873688
  -0.00014757  0.49976129  0.52862768
   0.50026499  0.00023122  0.52853584
   0.49971708  0.49944994  0.52848649
   0.33323985  0.16667025  0.41628108
   0.33325591  0.66657149  0.41616318
   0.83345014  0.16670825  0.41623471
   0.83337601  0.66669431  0.41625330
   0.16678845  0.33336287  0.64030036
   0.16517161  0.83037230  0.63969931
   0.66798628  0.33594679  0.64002875
   0.66693805  0.83281795  0.64016782
   0.49516501  0.10554027  0.72533680
   0.35438233  0.11898326  0.72836298
Direct configuration=    20
   0.16669030  0.33321148  0.38721572
   0.16660883  0.83343032  0.38727436
   0.66659274  0.33335418  0.38733158
   0.66676572  0.83331687  0.38729413
  -0.00014030 -0.00020805  0.61257202
   0.00075528  0.50035468  0.61240684
   0.50110207 -0.00160405  0.61202651
   0.49967061  0.50079533  0.61231803
   0.33337913  0.16662487  0.49989458
   0.33326669  0.66655820  0.49989961
   0.83345087  0.16675868  0.49986396
   0.83332214  0.66662561  0.49991637
   0.16655995  0.33299645  0.47115920
   0.16666320  0.83359113  0.47122864
   0.66654730  0.33319193  0.47128174
   0.66692897  0.83349357  0.47118362
   0.00000571  0.00001966  0.35918115
   0.00001838  0.49998389  0.35919599
   0.49999535 -0.00001530  0.35920609
   0.49996561  0.49998945  0.35919317
   0.33345782  0.16570460  0.58381022
   0.33442054  0.66710775  0.58336221
   0.83293194  0.16574888  0.58373416
   0.83309368  0.66749763  0.58332049
   0.00043812  0.00046708  0.52872829
  -0.00015586  0.49972167  0.52862391
   0.50031311  0.00024983  0.52851442
   0.49966574  0.49936797  0.52846682
   0.33324751  0.16667199  0.41614467
   0.33325106  0.66656818  0.41602684
   0.83344921  0.16671540  0.41609921
   0.83337577  0.66668338  0.41611860
   0.16680734  0.33337658  0.64044322
   0.16514762  0.83019445  0.63983095
   0.66808965  0.33609656  0.64015076
   0.66694824  0.83278308  0.64031555
   0.49401751  0.10479807  0.72550769
   0.35518445  0.12000000  0.72894866
Direct configuration=    21
   0.16668946  0.33322255  0.38719314
   0.16661652  0.83342211  0.38725185
   0.66659732  0.33334983  0.38730904
   0.66675473  0.83331751  0.38727214
  -0.00012095 -0.00021649  0.61257722
   0.00071685  0.50034123  0.61241596
   0.50111690 -0.00156547  0.61203993
   0.49969577  0.50075653  0.61232647