CeO2                                    
           1
     7.707464    0.000000    0.000000
    -3.853732    6.674860    0.000000
     0.000000    0.000000   28.319031
   Ce   O    C    O 
  12  24   1   1
Direct configuration=     1
   0.16666700  0.33333300  0.38888900
   0.16666700  0.83333300  0.38888900
   0.66666700  0.33333300  0.38888900
   0.66666700  0.83333300  0.38888900
   0.00000000  0.00000000  0.61111100
   0.00000000  0.50000000  0.61111100
   0.50000000  0.00000000  0.61111100
   0.50000000  0.50000000  0.61111100
   0.33333300  0.16666700  0.50000000
   0.33333300  0.66666700  0.50000000
   0.83333300  0.16666700  0.50000000
   0.83333300  0.66666700  0.50000000
   0.16666700  0.33333300  0.47222200
   0.16666700  0.83333300  0.47222200
   0.66666700  0.33333300  0.47222200
   0.66666700  0.83333300  0.47222200
   0.00000000  0.00000000  0.36111100
   0.00000000  0.50000000  0.36111100
   0.50000000  0.00000000  0.36111100
   0.50000000  0.50000000  0.36111100
   0.33333300  0.16666700  0.58333300
   0.33333300  0.66666700  0.58333300
   0.83333300  0.16666700  0.58333300
   0.83333300  0.66666700  0.58333300
   0.00000000  0.00000000  0.52777800
   0.00000000  0.50000000  0.52777800
   0.50000000  0.00000000  0.52777800
   0.50000000  0.50000000  0.52777800
   0.33333300  0.16666700  0.41666700
   0.33333300  0.66666700  0.41666700
   0.83333300  0.16666700  0.41666700
   0.83333300  0.66666700  0.41666700
   0.16666700  0.33333300  0.63888900
   0.16666700  0.83333300  0.63888900
   0.66666700  0.33333300  0.63888900
   0.66666700  0.83333300  0.63888900
   0.38888900  0.50000000  0.76422100
   0.38888900  0.50000000  0.72389500
Direct configuration=     2
   0.16666866  0.33333260  0.38860731
   0.16666674  0.83333454  0.38860728
   0.66666531  0.33333346  0.38860714
   0.66666756  0.83333184  0.38860691
   0.00000047  0.00024887  0.61133079
   0.00005654  0.49980643  0.61131780
   0.50009056 -0.00000261  0.61132309
   0.49974838  0.49999830  0.61150905
   0.33333523  0.16668742  0.50000029
   0.33333719  0.66664987  0.49999942
   0.83334270  0.16667005  0.50000198
   0.83331654  0.66666058  0.49999921
   0.16665813  0.33332949  0.47179948
   0.16666899  0.83333362  0.47179901
   0.66667113  0.33332712  0.47179931
   0.66666968  0.83334257  0.47180130
   0.00000927  0.00000059  0.36090628
  -0.00000201  0.50000294  0.36090717
   0.49999367  0.00000514  0.36090663
   0.49999953  0.49999152  0.36090623
   0.33337676  0.16663268  0.58311726
   0.33334005  0.66671666  0.58311740
   0.83323844  0.16665205  0.58310927
   0.83335259  0.66665215  0.58311906
  -0.00000227 -0.00000353  0.52819956
  -0.00000288  0.50000034  0.52820469
   0.50000157  0.00000188  0.52820731
   0.50000664  0.50000031  0.52819114
   0.33333444  0.16666318  0.41688866
   0.33332485  0.66666685  0.41688977
   0.83333443  0.16667457  0.41689087
   0.83333966  0.66666250  0.41688886
   0.16547113  0.33248417  0.63878692
   0.16671081  0.83332515  0.63915683
   0.66671699  0.33326484  0.63913040
   0.66687930  0.83366651  0.63907603
   0.38863495  0.49988805  0.76465182
   0.39015626  0.50066733  0.72375447
Direct configuration=     3
   0.16666863  0.33333260  0.38861163
   0.16666675  0.83333451  0.38861161
   0.66666534  0.33333345  0.38861146
   0.66666755  0.83333185  0.38861124
   0.00000046  0.00024505  0.61132742
   0.00005567  0.49980941  0.61131463
   0.50008917 -0.00000257  0.61131983
   0.49975224  0.49999833  0.61150294
   0.33333519  0.16668710  0.50000028
   0.33333712  0.66665013  0.49999943
   0.83334255  0.16667000  0.50000195
   0.83331679  0.66666067  0.49999922
   0.16665826  0.33332954  0.47180596
   0.16666896  0.83333361  0.47180550
   0.66667107  0.33332721  0.47180580
   0.66666964  0.83334242  0.47180776
   0.00000913  0.00000059  0.36090943
  -0.00000198  0.50000290  0.36091030
   0.49999377  0.00000506  0.36090977
   0.49999953  0.49999165  0.36090937
   0.33337609  0.16663320  0.58312057
   0.33333995  0.66671590  0.58312071
   0.83323990  0.16665228  0.58311271
   0.83335228  0.66665238  0.58312235
  -0.00000223 -0.00000347  0.52819309
  -0.00000283  0.50000034  0.52819814
   0.50000155  0.00000186  0.52820072
   0.50000653  0.50000030  0.52818480
   0.33333442  0.16666324  0.41688526
   0.33332497  0.66666685  0.41688635
   0.83333440  0.16667445  0.41688744
   0.83333956  0.66666257  0.41688545
   0.16548949  0.33249720  0.63878848
   0.16671014  0.83332527  0.63915272
   0.66671622  0.33326589  0.63912670
   0.66687605  0.83366139  0.63907316
   0.38863885  0.49988976  0.76464521
   0.39013681  0.50065709  0.72375662
Direct configuration=     4
   0.16666878  0.33333248  0.38856016
   0.16666670  0.83333475  0.38856014
   0.66666515  0.33333346  0.38856002
   0.66666771  0.83333179  0.38855976
  -0.00000189  0.00028180  0.61136690
   0.00005970  0.49977848  0.61135192
   0.50010274 -0.00000178  0.61135917
   0.49971274  0.49999937  0.61157639
   0.33333669  0.16669240  0.50000063
   0.33333912  0.66664660  0.49999913
   0.83334370  0.16667013  0.50000198
   0.83331196  0.66665873  0.49999985
   0.16665647  0.33332902  0.47172392
   0.16666957  0.83333365  0.47172349
   0.66667190  0.33332586  0.47172376
   0.66666995  0.83334440  0.47172598
   0.00001050  0.00000069  0.36086648
  -0.00000226  0.50000332  0.36086748
   0.49999284  0.00000582  0.36086687
   0.49999945  0.49999041  0.36086642
   0.33338744  0.16663043  0.58308380
   0.33334341  0.66672340  0.58308427
   0.83321707  0.16664802  0.58307276
   0.83335145  0.66664694  0.58308588
  -0.00000248 -0.00000317  0.52827432
  -0.00000248  0.50000008  0.52828038
   0.50000157  0.00000151  0.52828338
   0.50000669  0.50000045  0.52826562
   0.33333461  0.16666274  0.41692300
   0.33332384  0.66666676  0.41692428
   0.83333468  0.16667552  0.41692551
   0.83334047  0.66666194  0.41692318
   0.16525534  0.33233110  0.63877090
   0.16672023  0.83332357  0.63920758
   0.66672381  0.33325351  0.63917674
   0.66691530  0.83372457  0.63911237
   0.38858994  0.49986860  0.76462857
   0.39039561  0.50079266  0.72383305
Direct configuration=     5
   0.16666921  0.33333211  0.38840576
   0.16666657  0.83333547  0.38840572
   0.66666456  0.33333349  0.38840568
   0.66666819  0.83333161  0.38840534
  -0.00000894  0.00039203  0.61148533
   0.00007177  0.49968568  0.61146380
   0.50014345  0.00000058  0.61147720
   0.49959425  0.50000250  0.61179675
   0.33334117  0.16670828  0.50000166
   0.33334510  0.66663601  0.49999821
   0.83334715  0.16667052  0.50000206
   0.83329748  0.66665288  0.50000171
   0.16665109  0.33332745  0.47147781
   0.16667138  0.83333377  0.47147745
   0.66667441  0.33332182  0.47147762
   0.66667087  0.83335033  0.47148066
   0.00001459  0.00000102  0.36073764
  -0.00000312  0.50000458  0.36073903
   0.49999007  0.00000808  0.36073819
   0.49999919  0.49998667  0.36073757
   0.33342149  0.16662211  0.58297348
   0.33335380  0.66674591  0.58297495
   0.83314861  0.16663526  0.58295293
   0.83334896  0.66663064  0.58297646
  -0.00000321 -0.00000225  0.52851801
  -0.00000141  0.49999933  0.52852711
   0.50000165  0.00000046  0.52853135
   0.50000715  0.50000088  0.52850808
   0.33333516  0.16666126  0.41703622
   0.33332043  0.66666649  0.41703806
   0.83333550  0.16667871  0.41703972
   0.83334321  0.66666003  0.41703637
   0.16455290  0.33183281  0.63871814
   0.16675050  0.83331848  0.63937216
   0.66674657  0.33321638  0.63932685
   0.66703305  0.83391409  0.63922998
   0.38844321  0.49980512  0.76457866
   0.39117201  0.50119939  0.72406231
Direct configuration=     6
   0.16667008  0.33333137  0.38809694
   0.16666631  0.83333692  0.38809690
   0.66666340  0.33333356  0.38809699
   0.66666916  0.83333125  0.38809649
  -0.00002305  0.00061250  0.61172219
   0.00009592  0.49950010  0.61168757
   0.50022486  0.00000531  0.61171325
   0.49935726  0.50000876  0.61223746
   0.33335015  0.16674005  0.50000373
   0.33335705  0.66661484  0.49999639
   0.83335405  0.16667129  0.50000222
   0.83326852  0.66664120  0.50000544
   0.16664033  0.33332431  0.47098558
   0.16667500  0.83333401  0.47098537
   0.66667941  0.33331373  0.47098535
   0.66667273  0.83336220  0.47099002
   0.00002279  0.00000166  0.36047995
  -0.00000483  0.50000710  0.36048213
   0.49998451  0.00001261  0.36048081
   0.49999868  0.49997921  0.36047986
   0.33348958  0.16660547  0.58275284
   0.33337458  0.66679093  0.58275630
   0.83301168  0.16660974  0.58271326
   0.83334397  0.66659804  0.58275764
  -0.00000467 -0.00000042  0.52900540
   0.00000071  0.49999781  0.52902057
   0.50000181 -0.00000163  0.52902729
   0.50000806  0.50000175  0.52899301
   0.33333628  0.16665830  0.41726266
   0.33331361  0.66666595  0.41726561
   0.83333714  0.16668510  0.41726815
   0.83334870  0.66665620  0.41726274
   0.16314802  0.33083622  0.63861261
   0.16681103  0.83330830  0.63970131
   0.66679209  0.33314213  0.63962707
   0.66726854  0.83429314  0.63946520
   0.38814975  0.49967815  0.76447883
   0.39272480  0.50201285  0.72452085
Direct configuration=     7
   0.16666944  0.33333192  0.38832430
   0.16666650  0.83333586  0.38832426
   0.66666426  0.33333351  0.38832425
   0.66666845  0.83333152  0.38832387
  -0.00001266  0.00045019  0.61154781
   0.00007814  0.49963673  0.61152283
   0.50016492  0.00000183  0.61153947
   0.49953173  0.50000415  0.61191300
   0.33334354  0.16671666  0.50000221
   0.33334825  0.66663043  0.49999773
   0.83334897  0.16667072  0.50000210
   0.83328984  0.66664980  0.50000269
   0.16664825  0.33332662  0.47134796
   0.16667233  0.83333383  0.47134765
   0.66667573  0.33331968  0.47134777
   0.66667136  0.83335346  0.47135124
   0.00001676  0.00000119  0.36066966
  -0.00000357  0.50000524  0.36067126
   0.49998860  0.00000927  0.36067029
   0.49999906  0.49998470  0.36066959
   0.33343945  0.16661772  0.58291528
   0.33335928  0.66675779  0.58291727
   0.83311249  0.16662853  0.58288971
   0.83334764  0.66662204  0.58291874
  -0.00000359 -0.00000177  0.52864658
  -0.00000085  0.49999893  0.52865728
   0.50000169 -0.00000009  0.52866217
   0.50000739  0.50000111  0.52863600
   0.33333546  0.16666048  0.41709595
   0.33331863  0.66666635  0.41709808
   0.83333593  0.16668040  0.41709998
   0.83334466  0.66665902  0.41709608
   0.16418231  0.33156992  0.63869030
   0.16676646  0.83331580  0.63945898
   0.66675857  0.33319680  0.63940604
   0.66709517  0.83401408  0.63929203
   0.38836580  0.49977163  0.76455233
   0.39158162  0.50141397  0.72418327
Direct configuration=     8
   0.16666946  0.33333190  0.38831668
   0.16666650  0.83333589  0.38831664
   0.66666423  0.33333351  0.38831663
   0.66666847  0.83333151  0.38831625
  -0.00001301  0.00045562  0.61155365
   0.00007873  0.49963215  0.61152835
   0.50016693  0.00000194  0.61154529
   0.49952589  0.50000431  0.61192387
   0.33334376  0.16671745  0.50000226
   0.33334855  0.66662991  0.49999769
   0.83334914  0.16667074  0.50000210
   0.83328913  0.66664951  0.50000279
   0.16664799  0.33332654  0.47133583
   0.16667242  0.83333384  0.47133551
   0.66667585  0.33331948  0.47133563
   0.66667141  0.83335376  0.47133914
   0.00001696  0.00000120  0.36066331
  -0.00000361  0.50000531  0.36066493
   0.49998846  0.00000939  0.36066395
   0.49999904  0.49998452  0.36066323
   0.33344113  0.16661731  0.58290983
   0.33335979  0.66675890  0.58291188
   0.83310911  0.16662790  0.58288380
   0.83334752  0.66662124  0.58291334
  -0.00000363 -0.00000173  0.52865860
  -0.00000080  0.49999889  0.52866945
   0.50000169 -0.00000014  0.52867440
   0.50000741  0.50000113  0.52864796
   0.33333549  0.16666041  0.41710153
   0.33331846  0.66666633  0.41710369
   0.83333597  0.16668055  0.41710561
   0.83334479  0.66665892  0.41710166
   0.16414766  0.33154534  0.63868770
   0.16676796  0.83331555  0.63946710
   0.66675970  0.33319497  0.63941345
   0.66710098  0.83402343  0.63929783
   0.38835856  0.49976849  0.76454986
   0.39161991  0.50143403  0.72419458
Direct configuration=     9
   0.16666945  0.33333191  0.38832087
   0.16666650  0.83333587  0.38832084
   0.66666424  0.33333351  0.38832083
   0.66666846  0.83333151  0.38832044
  -0.00001282  0.00045263  0.61155044
   0.00007841  0.49963467  0.61152531
   0.50016582  0.00000188  0.61154208
   0.49952910  0.50000422  0.61191788
   0.33334364  0.16671701  0.50000223
   0.33334838  0.66663019  0.49999771
   0.83334905  0.16667073  0.50000210
   0.83328952  0.66664967  0.50000274
   0.16664813  0.33332659  0.47134251
   0.16667237  0.83333383  0.47134219
   0.66667578  0.33331959  0.47134231
   0.66667139  0.83335359  0.47134580
   0.00001685  0.00000119  0.36066681
  -0.00000359  0.50000527  0.36066842
   0.49998854  0.00000932  0.36066744
   0.49999905  0.49998462  0.36066673
   0.33344021  0.16661754  0.58291283
   0.33335951  0.66675829  0.58291485
   0.83311097  0.16662825  0.58288705
   0.83334759  0.66662168  0.58291631
  -0.00000361 -0.00000175  0.52865198
  -0.00000083  0.49999891  0.52866275
   0.50000169 -0.00000011  0.52866767
   0.50000740  0.50000112  0.52864137
   0.33333547  0.16666045  0.41709846
   0.33331855  0.66666634  0.41710060
   0.83333595  0.16668047  0.41710251
   0.83334472  0.66665897  0.41709859
   0.16416674  0.33155887  0.63868913
   0.16676714  0.83331568  0.63946263
   0.66675908  0.33319597  0.63940937
   0.66709778  0.83401828  0.63929463
   0.38836255  0.49977022  0.76455122
   0.39159883  0.50142299  0.72418835
Direct configuration=    10
   0.16666911  0.33333172  0.38832177
   0.16666639  0.83333578  0.38832207
   0.66666445  0.33333344  0.38832189
   0.66666865  0.83333175  0.38832154
  -0.00002281  0.00041774  0.61154650
   0.00005387  0.49965185  0.61152213
   0.50015404  0.00000651  0.61154313
   0.49955294  0.50000878  0.61191554
   0.33334764  0.16672243  0.50000289
   0.33335267  0.66662881  0.49999666
   0.83334665  0.16666925  0.50000053
   0.83328316  0.66664680  0.50000496
   0.16664757  0.33332696  0.47132938
   0.16667312  0.83333350  0.47132938
   0.66667610  0.33331870  0.47132921
   0.66667082  0.83335431  0.47133248
   0.00001620  0.00000123  0.36064763
  -0.00000338  0.50000495  0.36064919
   0.49998905  0.00000891  0.36064825
   0.49999902  0.49998521  0.36064758
   0.33345367  0.16663166  0.58292500
   0.33336812  0.66675183  0.58292835
   0.83308870  0.16662222  0.58289235
   0.83332987  0.66661054  0.58292834
  -0.00000293  0.00000154  0.52866290
   0.00000243  0.49999796  0.52867396
   0.50000026 -0.00000293  0.52867853
   0.50000359  0.50000141  0.52865720
   0.33333533  0.16666107  0.41708604
   0.33331941  0.66666602  0.41708815
   0.83333610  0.16667974  0.41708988
   0.83334390  0.66665930  0.41708605
   0.16412264  0.33152802  0.63869525
   0.16677463  0.83331417  0.63948342
   0.66675143  0.33319834  0.63943074
   0.66709549  0.83402060  0.63931319
   0.38833980  0.49976102  0.76456262
   0.39171030  0.50147886  0.72420130
Direct configuration=    11
   0.16666810  0.33333116  0.38832446
   0.16666605  0.83333552  0.38832577
   0.66666508  0.33333321  0.38832507
   0.66666923  0.83333247  0.38832484
  -0.00005279  0.00031308  0.61153470
  -0.00001973  0.49970337  0.61151260
   0.50011867  0.00002039  0.61154626
   0.49962446  0.50002244  0.61190851
   0.33335964  0.16673869  0.50000486
   0.33336554  0.66662467  0.49999349
   0.83333947  0.16666481  0.49999583
   0.83326410  0.66663819  0.50001163
   0.16664589  0.33332809  0.47128999
   0.16667537  0.83333249  0.47129095
   0.66667707  0.33331602  0.47128992
   0.66666913  0.83335646  0.47129251
   0.00001425  0.00000133  0.36059011
  -0.00000275  0.50000397  0.36059150
   0.49999059  0.00000766  0.36059068
   0.49999892  0.49998698  0.36059012
   0.33349407  0.16667403  0.58296152
   0.33339393  0.66673245  0.58296888
   0.83302187  0.16660416  0.58290823
   0.83327670  0.66657712  0.58296443
  -0.00000089  0.00001142  0.52869565
   0.00001220  0.49999512  0.52870760
   0.49999598 -0.00001140  0.52871113
   0.49999218  0.50000229  0.52870468
   0.33333491  0.16666294  0.41704878
   0.33332200  0.66666505  0.41705079
   0.83333654  0.16667754  0.41705200
   0.83334143  0.66666027  0.41704843
   0.16399032  0.33143547  0.63871359
   0.16679710  0.83330963  0.63954578
   0.66672846  0.33320542  0.63949485
   0.66708862  0.83402755  0.63936888
   0.38827156  0.49973342  0.76459683
   0.39204470  0.50164649  0.72424015
Direct configuration=    12
   0.16666608  0.33333003  0.38832984
   0.16666538  0.83333499  0.38833316
   0.66666634  0.33333276  0.38833143
   0.66667038  0.83333390  0.38833144
  -0.00011276  0.00010376  0.61151110
  -0.00016694  0.49980641  0.61149353
   0.50004794  0.00004816  0.61155252
   0.49976750  0.50004977  0.61189445
   0.33338364  0.16677120  0.50000880
   0.33339128  0.66661638  0.49998716
   0.83332510  0.16665593  0.49998643
   0.83322598  0.66662096  0.50002498
   0.16664251  0.33333035  0.47121120
   0.16667986  0.83333047  0.47121409
   0.66667901  0.33331067  0.47121133
   0.66666574  0.83336077  0.47121256
   0.00001036  0.00000154  0.36047506
  -0.00000148  0.50000200  0.36047613
   0.49999366  0.00000516  0.36047555
   0.49999872  0.49999052  0.36047519
   0.33357488  0.16675877  0.58303456
   0.33344557  0.66669369  0.58304992
   0.83288823  0.16656804  0.58294001
   0.83317036  0.66651027  0.58303662
   0.00000320  0.00003119  0.52876116
   0.00003174  0.49998945  0.52877488
   0.49998742 -0.00002832  0.52877632
   0.49996936  0.50000405  0.52879965
   0.33333407  0.16666669  0.41697427
   0.33332718  0.66666311  0.41697607
   0.83333743  0.16667316  0.41697623
   0.83333650  0.66666221  0.41697320
   0.16372569  0.33125038  0.63875028
   0.16684205  0.83330054  0.63967049
   0.66668254  0.33321960  0.63962308
   0.66707488  0.83404145  0.63948024
   0.38813508  0.49967822  0.76466524
   0.39271352  0.50198175  0.72431784
Direct configuration=    13
   0.16666203  0.33332779  0.38834060
   0.16666403  0.83333394  0.38834795
   0.66666886  0.33333186  0.38834416
   0.66667268  0.83333677  0.38834463
  -0.00023268 -0.00031488  0.61146389
  -0.00046135  0.50001250  0.61145540
   0.49990649  0.00010369  0.61156504
   0.50005357  0.50010443  0.61186634
   0.33343163  0.16683623  0.50001667
   0.33344275  0.66659979  0.49997450
   0.83329637  0.16663817  0.49996763
   0.83314973  0.66658651  0.50005167
   0.16663577  0.33333487  0.47105363
   0.16668884  0.83332644  0.47106036
   0.66668289  0.33329996  0.47105416
   0.66665897  0.83336938  0.47105268
   0.00000259  0.00000196  0.36024496
   0.00000105  0.49999808  0.36024538
   0.49999981  0.00000016  0.36024528
   0.49999833  0.49999761  0.36024534
   0.33373648  0.16692825  0.58318064
   0.33354885  0.66661617  0.58321202
   0.83262094  0.16649579  0.58300356
   0.83295769  0.66637659  0.58318098
   0.00001136  0.00007071  0.52889217
   0.00007083  0.49997809  0.52890944
   0.49997029 -0.00006216  0.52890671
   0.49992371  0.50000757  0.52898957
   0.33333240  0.16667418  0.41682524
   0.33333754  0.66665923  0.41682663
   0.83333919  0.16666438  0.41682470
   0.83332663  0.66666610  0.41682273
   0.16319643  0.33088018  0.63882367
   0.16693196  0.83328236  0.63991993
   0.66659069  0.33324795  0.63987952
   0.66704740  0.83406925  0.63970297
   0.38786211  0.49956783  0.76480207
   0.39405115  0.50265227  0.72447322
Direct configuration=    14
   0.16666327  0.33332650  0.38828719
   0.16666137  0.83333442  0.38829861
   0.66666859  0.33333472  0.38829117
   0.66667485  0.83333484  0.38829100
  -0.00027392 -0.00034609  0.61150603
  -0.00051317  0.49999425  0.61149751
   0.49989005  0.00010120  0.61161817
   0.50004229  0.50009845  0.61191076
   0.33344375  0.16683606  0.50001486
   0.33345010  0.66660898  0.49997504
   0.83327666  0.16663200  0.49996525
   0.83314355  0.66658085  0.50004034
   0.16664574  0.33333984  0.47104833
   0.16668137  0.83332269  0.47105833
   0.66668121  0.33331185  0.47105115
   0.66665748  0.83335585  0.47104788
   0.00000023  0.00000258  0.36017525
   0.00000175  0.49999639  0.36017566
   0.50000242 -0.00000092  0.36017588
   0.49999828  0.49999974  0.36017575
   0.33379554  0.16696637  0.58322459
   0.33357946  0.66660509  0.58326296
   0.83248579  0.16645838  0.58301621
   0.83288947  0.66632949  0.58322355
   0.00001593  0.00005526  0.52888932
   0.00007965  0.50000374  0.52890630
   0.49993369 -0.00008547  0.52889991
   0.49992936  0.50001420  0.52900422
   0.33333439  0.16667906  0.41678057
   0.33334258  0.66665777  0.41678066
   0.83333861  0.16666165  0.41677652
   0.83332080  0.66666551  0.41677979
   0.16303791  0.33076739  0.63884678
   0.16693669  0.83326808  0.63999171
   0.66656121  0.33328138  0.63996017
   0.66704562  0.83406106  0.63977000
   0.38774090  0.49952027  0.76489189
   0.39461450  0.50292657  0.72450668
Direct configuration=    15
   0.16666700  0.33332263  0.38812695
   0.16665341  0.83333587  0.38815059
   0.66666777  0.33334329  0.38813219
   0.66668135  0.83332907  0.38813012
  -0.00039764 -0.00043972  0.61163247
  -0.00066862  0.49993948  0.61162384
   0.49984073  0.00009373  0.61177758
   0.50000844  0.50008051  0.61204402
   0.33348011  0.16683557  0.50000944
   0.33347216  0.66663653  0.49997666
   0.83321755  0.16661350  0.49995810
   0.83312500  0.66656384  0.50000638
   0.16667565  0.33335476  0.47103244
   0.16665898  0.83331145  0.47105225
   0.66667618  0.33334751  0.47104214
   0.66665303  0.83331526  0.47103348
  -0.00000684  0.00000444  0.35996610
   0.00000386  0.49999129  0.35996651
   0.50001026 -0.00000413  0.35996769
   0.49999813  0.50000614  0.35996697
   0.33397270  0.16708071  0.58335645
   0.33367132  0.66657184  0.58341579
   0.83208034  0.16634614  0.58305415
   0.83268481  0.66618820  0.58335127
   0.00002965  0.00000892  0.52888077
   0.00010611  0.50008066  0.52889689
   0.49982391 -0.00015539  0.52887951
   0.49994631  0.50003410  0.52904817
   0.33334035  0.16669371  0.41664657
   0.33335772  0.66665342  0.41664275
   0.83333686  0.16665345  0.41663201
   0.83330333  0.66666374  0.41665095
   0.16256237  0.33042902  0.63891613
   0.16695089  0.83322522  0.64020707
   0.66647280  0.33338168  0.64020212
   0.66704025  0.83403649  0.63997108
   0.38737724  0.49937762  0.76516133
   0.39630454  0.50374946  0.72460706
Direct configuration=    16
   0.16667445  0.33331490  0.38780646
   0.16663747  0.83333876  0.38785456
   0.66666612  0.33336044  0.38781423
   0.66669436  0.83331753  0.38780836
  -0.00064508 -0.00062698  0.61188534
  -0.00097952  0.49982994  0.61187650
   0.49974209  0.00007879  0.61209640
   0.49994073  0.50004463  0.61231054
   0.33355282  0.16683458  0.49999858
   0.33351626  0.66669164  0.49997990
   0.83309931  0.16657648  0.49994379
   0.83308790  0.66652983  0.49993845
   0.16673547  0.33338460  0.47100065
   0.16661419  0.83328896  0.47104009
   0.66666612  0.33341885  0.47102412
   0.66664414  0.83323408  0.47100468
  -0.00002099  0.00000815  0.35954780
   0.00000806  0.49998110  0.35954822
   0.50002595 -0.00001057  0.35955132
   0.49999783  0.50001895  0.35954942
   0.33432704  0.16730940  0.58362015
   0.33385504  0.66650534  0.58372145
   0.83126944  0.16612167  0.58313004
   0.83227549  0.66590561  0.58360671
   0.00005708 -0.00008378  0.52886368
   0.00015903  0.50023452  0.52887806
   0.49960434 -0.00029522  0.52883872
   0.49998021  0.50007389  0.52913606
   0.33335228  0.16672300  0.41637858
   0.33338798  0.66664470  0.41636694
   0.83333335  0.16663704  0.41634299
   0.83326840  0.66666021  0.41639329
   0.16161129  0.32975228  0.63905481
   0.16697930  0.83313950  0.64063777
   0.66629596  0.33358228  0.64068602
   0.66702953  0.83398734  0.64037326
   0.38664993  0.49909231  0.76570021
   0.39968463  0.50539525  0.72480782
Direct configuration=    17
   0.16666971  0.33331983  0.38801059
   0.16664762  0.83333692  0.38804311
   0.66666717  0.33334952  0.38801675
   0.66668607  0.83332488  0.38801330
  -0.00048748 -0.00050771  0.61172428
  -0.00078150  0.49989971  0.61171557
   0.49980491  0.00008831  0.61189334
   0.49998385  0.50006748  0.61214079
   0.33350651  0.16683521  0.50000550
   0.33348817  0.66665654  0.49997784
   0.83317462  0.16660005  0.49995290
   0.83311153  0.66655149  0.49998171
   0.16669737  0.33336559  0.47102090
   0.16664272  0.83330328  0.47104784
   0.66667253  0.33337341  0.47103560
   0.66664980  0.83328579  0.47102302
  -0.00001198  0.00000578  0.35981422
   0.00000538  0.49998759  0.35981464
   0.50001596 -0.00000647  0.35981652
   0.49999802  0.50001079  0.35981537
   0.33410135  0.16716374  0.58345219
   0.33373802  0.66654769  0.58352677
   0.83178592  0.16626464  0.58308170
   0.83253620  0.66608559  0.58344401
   0.00003961 -0.00002474  0.52887457
   0.00012532  0.50013653  0.52889005
   0.49974419 -0.00020616  0.52886470
   0.49995862  0.50004854  0.52908008
   0.33334468  0.16670434  0.41654927
   0.33336871  0.66665025  0.41654261
   0.83333559  0.16664749  0.41652708
   0.83329065  0.66666246  0.41655740
   0.16221706  0.33018331  0.63896648
   0.16696121  0.83319410  0.64036345
   0.66640859  0.33345452  0.64037782
   0.66703636  0.83401864  0.64011710
   0.38711317  0.49927403  0.76535699
   0.39753177  0.50434701  0.72467995
Direct configuration=    18
   0.16667006  0.33331960  0.38799586
   0.16664717  0.83333707  0.38802940
   0.66666701  0.33335006  0.38800202
   0.66668642  0.83332444  0.38799842
  -0.00049830 -0.00051326  0.61173610
  -0.00079384  0.49989291  0.61172738
   0.49980106  0.00008696  0.61190782
   0.49997849  0.50006532  0.61215337
   0.33350915  0.16683478  0.50000502
   0.33348964  0.66665882  0.49997813
   0.83316961  0.16659848  0.49995228
   0.83311038  0.66655032  0.49997855
   0.16670012  0.33336691  0.47102043
   0.16664058  0.83330229  0.47104810
   0.66667198  0.33337669  0.47103568
   0.66664940  0.83328202  0.47102266
  -0.00001253  0.00000583  0.35979649
   0.00000547  0.49998725  0.35979692
   0.50001655 -0.00000667  0.35979887
   0.49999812  0.50001129  0.35979764
   0.33411571  0.16717195  0.58346323
   0.33374505  0.66654555  0.58353959
   0.83175054  0.16625480  0.58308487
   0.83251983  0.66607408  0.58345467
   0.00004081 -0.00002927  0.52887311
   0.00012752  0.50014375  0.52888843
   0.49973369 -0.00021268  0.52886199
   0.49996039  0.50005027  0.52908261
   0.33334529  0.16670551  0.41653798
   0.33336995  0.66665000  0.41653100
   0.83333529  0.16664683  0.41651488
   0.83328920  0.66666222  0.41654655
   0.16217671  0.33015469  0.63897266
   0.16696119  0.83319017  0.64038143
   0.66640161  0.33346331  0.64039836
   0.66703680  0.83401704  0.64013409
   0.38708462  0.49926322  0.76536718
   0.39767726  0.50441745  0.72470224
Direct configuration=    19
   0.16667111  0.33331891  0.38795169
   0.16664582  0.83333753  0.38798828
   0.66666652  0.33335167  0.38795782
   0.66668746  0.83332310  0.38795377
  -0.00053074 -0.00052992  0.61177156
  -0.00083085  0.49987252  0.61176279
   0.49978949  0.00008292  0.61195129
   0.49996239  0.50005885  0.61219112
   0.33351707  0.16683348  0.50000359
   0.33349406  0.66666567  0.49997899
   0.83315459  0.16659375  0.49995042
   0.83310691  0.66654679  0.49996907
   0.16670838  0.33337086  0.47101903
   0.16663418  0.83329930  0.47104888
   0.66667034  0.33338653  0.47103593
   0.66664819  0.83327074  0.47102158
  -0.00001420  0.00000595  0.35974328
   0.00000572  0.49998623  0.35974376
   0.50001832 -0.00000729  0.35974594
   0.49999840  0.50001277  0.35974446
   0.33415877  0.16719659  0.58349633
   0.33376614  0.66653911  0.58357805
   0.83164439  0.16622526  0.58309437
   0.83247074  0.66603955  0.58348662
   0.00004442 -0.00004285  0.52886874
   0.00013410  0.50016543  0.52888355
   0.49970222 -0.00023225  0.52885387
   0.49996570  0.50005546  0.52909021
   0.33334713  0.16670901  0.41650410
   0.33337369  0.66664924  0.41649614
   0.83333441  0.16664486  0.41647830
   0.83328485  0.66666150  0.41651397
   0.16205566  0.33006881  0.63899120
   0.16696115  0.83317839  0.64043540
   0.66638067  0.33348970  0.64045998
   0.66703811  0.83401225  0.64018505
   0.38699898  0.49923081  0.76539777
   0.39811371  0.50462878  0.72476909
Direct configuration=    20
   0.16667320  0.33331754  0.38786335
   0.16664312  0.83333845  0.38790603
   0.66666554  0.33335489  0.38786943
   0.66668955  0.83332042  0.38786448
  -0.00059561 -0.00056323  0.61184249
  -0.00090488  0.49983174  0.61183362
   0.49976634  0.00007485  0.61203823
   0.49993021  0.50004590  0.61226663
   0.33353292  0.16683087  0.50000074
   0.33350289  0.66667936  0.49998071
   0.83312454  0.16658428  0.49994671
   0.83309998  0.66653975  0.49995009
   0.16672491  0.33337875  0.47101622
   0.16662138  0.83329333  0.47105044
   0.66666706  0.33340620  0.47103643
   0.66664576  0.83324817  0.47101943
  -0.00001754  0.00000621  0.35963686
   0.00000622  0.49998419  0.35963745
   0.50002185 -0.00000853  0.35964007
   0.49999897  0.50001574  0.35963809
   0.33424489  0.16724586  0.58356253
   0.33380831  0.66652623  0.58365497
   0.83143210  0.16616620  0.58311337
   0.83237255  0.66597049  0.58355053
   0.00005163 -0.00007001  0.52886000
   0.00014727  0.50020879  0.52887379
   0.49963927 -0.00027138  0.52883764
   0.49997632  0.50006582  0.52910541
   0.33335081  0.16671601  0.41643634
   0.33338118  0.66664771  0.41642642
   0.83333266  0.16664092  0.41640513
   0.83327615  0.66666007  0.41644881
   0.16181357  0.32989705  0.63902829
   0.16696107  0.83315483  0.64054333
   0.66633878  0.33354247  0.64058324
   0.66704074  0.83400266  0.64028696
   0.38682769  0.49916597  0.76545894
   0.39898662  0.50505144  0.72490279
Direct configuration=    21
   0.16667740  0.33331479  0.38768667
   0.16663773  0.83334028  0.38774152
   0.66666358  0.33336133  0.38769264
   0.66669372  0.83331506  0.38768590
  -0.00072537 -0.00062986  0.61198434
  -0.00105293  0.49975019  0.61197528
   0.49972006  0.00005871  0.61221211
   0.49986583  0.50002000  0.61241764