CeO2                                    
           1
     7.707464    0.000000    0.000000
    -3.853732    6.674860    0.000000
     0.000000    0.000000   28.319031
   Ce   O    C    O 
  12  24   1   1
Direct configuration=     1
   0.16666700  0.33333300  0.38888900
   0.16666700  0.83333300  0.38888900
   0.66666700  0.33333300  0.38888900
   0.66666700  0.83333300  0.38888900
   0.00000000  0.00000000  0.61111100
   0.00000000  0.50000000  0.61111100
   0.50000000  0.00000000  0.61111100
   0.50000000  0.50000000  0.61111100
   0.33333300  0.16666700  0.50000000
   0.33333300  0.66666700  0.50000000
   0.83333300  0.16666700  0.50000000
   0.83333300  0.66666700  0.50000000
   0.16666700  0.33333300  0.47222200
   0.16666700  0.83333300  0.47222200
   0.66666700  0.33333300  0.47222200
   0.66666700  0.83333300  0.47222200
   0.00000000  0.00000000  0.36111100
   0.00000000  0.50000000  0.36111100
   0.50000000  0.00000000  0.36111100
   0.50000000  0.50000000  0.36111100
   0.33333300  0.16666700  0.58333300
   0.33333300  0.66666700  0.58333300
   0.83333300  0.16666700  0.58333300
   0.83333300  0.66666700  0.58333300
   0.00000000  0.00000000  0.52777800
   0.00000000  0.50000000  0.52777800
   0.50000000  0.00000000  0.52777800
   0.50000000  0.50000000  0.52777800
   0.33333300  0.16666700  0.41666700
   0.33333300  0.66666700  0.41666700
   0.83333300  0.16666700  0.41666700
   0.83333300  0.66666700  0.41666700
   0.16666700  0.33333300  0.63888900
   0.16666700  0.83333300  0.63888900
   0.66666700  0.33333300  0.63888900
   0.66666700  0.83333300  0.63888900
   0.27777800  0.50000000  0.76422100
   0.27777800  0.50000000  0.72389500
Direct configuration=     2
   0.16666385  0.33332903  0.38860011
   0.16666391  0.83333468  0.38860016
   0.66666872  0.33333474  0.38860039
   0.66667156  0.83333454  0.38860018
   0.00014851  0.00037538  0.61133099
   0.00012884  0.49985223  0.61131510
   0.50001437 -0.00002194  0.61132641
   0.49973859  0.49992643  0.61135023
   0.33332333  0.16666982  0.49999793
   0.33333096  0.66665834  0.49999369
   0.83334394  0.16666678  0.49999937
   0.83333380  0.66667300  0.49999384
   0.16666392  0.33332497  0.47179671
   0.16666223  0.83333743  0.47179833
   0.66666651  0.33333410  0.47179988
   0.66667515  0.83333610  0.47179821
  -0.00000043 -0.00000022  0.36090864
  -0.00000028  0.49999963  0.36090838
   0.50000020  0.00000010  0.36090828
   0.50000075  0.50000063  0.36090839
   0.33344404  0.16664937  0.58312133
   0.33336436  0.66672758  0.58312760
   0.83318974  0.16664312  0.58311888
   0.83331415  0.66662576  0.58312604
  -0.00000716 -0.00001678  0.52820131
  -0.00001550  0.50000413  0.52821315
   0.50000280  0.00000791  0.52821428
   0.50001969  0.50000216  0.52821291
   0.33333230  0.16666616  0.41688838
   0.33333342  0.66666686  0.41688589
   0.83333372  0.16666541  0.41688780
   0.83333361  0.66666789  0.41688830
   0.16553230  0.33166946  0.63844137
   0.16671295  0.83333910  0.63914221
   0.66666144  0.33331722  0.63914702
   0.66669372  0.83340392  0.63912396
   0.27755561  0.49970926  0.76473371
   0.27905636  0.50178571  0.72410665
Direct configuration=     3
   0.16666166  0.33332628  0.38839973
   0.16666176  0.83333584  0.38839982
   0.66666992  0.33333595  0.38840021
   0.66667472  0.83333560  0.38839984
   0.00025151  0.00063576  0.61148357
   0.00021821  0.49974974  0.61145667
   0.50002433 -0.00003716  0.61147583
   0.49955728  0.49987540  0.61151616
   0.33331662  0.16667177  0.49999650
   0.33332955  0.66665233  0.49998931
   0.83335152  0.16666662  0.49999893
   0.83333435  0.66667717  0.49998957
   0.16666179  0.33331940  0.47150172
   0.16665893  0.83334051  0.47150447
   0.66666618  0.33333487  0.47150709
   0.66668081  0.83333825  0.47150425
  -0.00000072 -0.00000037  0.36076828
  -0.00000047  0.49999937  0.36076784
   0.50000033  0.00000017  0.36076767
   0.50000127  0.50000107  0.36076786
   0.33352106  0.16663713  0.58297451
   0.33338611  0.66676960  0.58298513
   0.83309037  0.16662655  0.58297036
   0.83330107  0.66659716  0.58298248
  -0.00001212 -0.00002841  0.52849493
  -0.00002625  0.50000699  0.52851498
   0.50000475  0.00001339  0.52851690
   0.50003335  0.50000365  0.52851457
   0.33333182  0.16666558  0.41704193
   0.33333371  0.66666677  0.41703772
   0.83333423  0.16666431  0.41704095
   0.83333404  0.66666850  0.41704180
   0.16474525  0.33051558  0.63813088
   0.16674482  0.83334333  0.63931784
   0.66665758  0.33330627  0.63932599
   0.66671225  0.83345312  0.63928693
   0.27740135  0.49950759  0.76508934
   0.27994307  0.50302433  0.72425346
Direct configuration=     4
   0.16666097  0.33332528  0.38833589
   0.16666149  0.83333657  0.38833614
   0.66667002  0.33333591  0.38833669
   0.66667564  0.83333623  0.38833614
   0.00026587  0.00067965  0.61152968
   0.00021863  0.49972707  0.61149898
   0.50002671 -0.00003742  0.61152751
   0.49953333  0.49986718  0.61156661
   0.33331462  0.16667106  0.49999737
   0.33333057  0.66665224  0.49998749
   0.83335195  0.16666439  0.49999971
   0.83333477  0.66668003  0.49999107
   0.16666208  0.33331991  0.47139458
   0.16665921  0.83334039  0.47139745
   0.66666610  0.33333486  0.47140035
   0.66668026  0.83333802  0.47139721
  -0.00000080 -0.00000044  0.36070747
  -0.00000053  0.49999933  0.36070701
   0.50000038  0.00000021  0.36070684
   0.50000148  0.50000123  0.36070704
   0.33356586  0.16663459  0.58293062
   0.33339417  0.66677974  0.58294633
   0.83303283  0.16661702  0.58292433
   0.83328829  0.66657634  0.58294163
  -0.00001217 -0.00002849  0.52859850
  -0.00002490  0.50000811  0.52862277
   0.50000323  0.00001084  0.52862351
   0.50003338  0.50000478  0.52862326
   0.33333158  0.16666541  0.41708270
   0.33333378  0.66666670  0.41707831
   0.83333451  0.16666400  0.41708164
   0.83333423  0.66666877  0.41708246
   0.16445601  0.33009199  0.63802265
   0.16676170  0.83333928  0.63939053
   0.66665521  0.33330568  0.63940053
   0.66670793  0.83346357  0.63935500
   0.27734618  0.49943638  0.76507507
   0.28030145  0.50352361  0.72447495
Direct configuration=     5
   0.16666029  0.33332428  0.38827248
   0.16666121  0.83333730  0.38827288
   0.66667012  0.33333587  0.38827361
   0.66667655  0.83333685  0.38827287
   0.00028013  0.00072324  0.61157547
   0.00021905  0.49970456  0.61154100
   0.50002907 -0.00003768  0.61157884
   0.49950954  0.49985901  0.61161672
   0.33331264  0.16667036  0.49999825
   0.33333159  0.66665215  0.49998568
   0.83335237  0.16666217  0.50000049
   0.83333518  0.66668287  0.49999256
   0.16666236  0.33332041  0.47128816
   0.16665950  0.83334027  0.47129115
   0.66666603  0.33333485  0.47129433
   0.66667971  0.83333781  0.47129088
  -0.00000088 -0.00000051  0.36064707
  -0.00000060  0.49999929  0.36064660
   0.50000042  0.00000025  0.36064642
   0.50000168  0.50000139  0.36064664
   0.33361037  0.16663205  0.58288702
   0.33340216  0.66678981  0.58290778
   0.83297568  0.16660755  0.58287861
   0.83327560  0.66655566  0.58290106
  -0.00001221 -0.00002857  0.52870137
  -0.00002355  0.50000923  0.52872984
   0.50000171  0.00000829  0.52872940
   0.50003342  0.50000590  0.52873122
   0.33333134  0.16666524  0.41712320
   0.33333385  0.66666663  0.41711863
   0.83333479  0.16666370  0.41712206
   0.83333443  0.66666905  0.41712284
   0.16416873  0.32967126  0.63791514
   0.16677845  0.83333525  0.63946273
   0.66665285  0.33330511  0.63947457
   0.66670363  0.83347395  0.63942260
   0.27729138  0.49936565  0.76506090
   0.28065741  0.50401951  0.72469494
Direct configuration=     6
   0.16666012  0.33332402  0.38825626
   0.16666114  0.83333748  0.38825670
   0.66667015  0.33333586  0.38825747
   0.66667679  0.83333701  0.38825668
   0.00028378  0.00073439  0.61158718
   0.00021916  0.49969880  0.61155175
   0.50002968 -0.00003775  0.61159197
   0.49950345  0.49985692  0.61162954
   0.33331213  0.16667018  0.49999847
   0.33333185  0.66665213  0.49998521
   0.83335247  0.16666160  0.50000069
   0.83333528  0.66668360  0.49999294
   0.16666244  0.33332054  0.47126094
   0.16665957  0.83334024  0.47126396
   0.66666601  0.33333485  0.47126721
   0.66667957  0.83333775  0.47126369
  -0.00000090 -0.00000052  0.36063162
  -0.00000062  0.49999927  0.36063115
   0.50000043  0.00000026  0.36063097
   0.50000173  0.50000143  0.36063118
   0.33362175  0.16663141  0.58287587
   0.33340421  0.66679238  0.58289792
   0.83296106  0.16660512  0.58286692
   0.83327235  0.66655037  0.58289068
  -0.00001222 -0.00002859  0.52872768
  -0.00002321  0.50000951  0.52875723
   0.50000133  0.00000764  0.52875649
   0.50003342  0.50000619  0.52875884
   0.33333128  0.16666520  0.41713356
   0.33333386  0.66666662  0.41712894
   0.83333486  0.16666362  0.41713240
   0.83333448  0.66666912  0.41713317
   0.16409524  0.32956364  0.63788764
   0.16678274  0.83333422  0.63948120
   0.66665224  0.33330496  0.63949351
   0.66670253  0.83347660  0.63943990
   0.27727737  0.49934755  0.76505728
   0.28074846  0.50414637  0.72475121
Direct configuration=     7
   0.16666015  0.33332407  0.38825957
   0.16666115  0.83333745  0.38826001
   0.66667015  0.33333587  0.38826077
   0.66667674  0.83333698  0.38825999
   0.00028304  0.00073212  0.61158479
   0.00021914  0.49969998  0.61154955
   0.50002955 -0.00003773  0.61158928
   0.49950469  0.49985735  0.61162692
   0.33331224  0.16667021  0.49999842
   0.33333179  0.66665213  0.49998531
   0.83335245  0.16666172  0.50000065
   0.83333526  0.66668345  0.49999286
   0.16666242  0.33332052  0.47126651
   0.16665955  0.83334024  0.47126952
   0.66666602  0.33333485  0.47127275
   0.66667960  0.83333776  0.47126925
  -0.00000090 -0.00000052  0.36063477
  -0.00000061  0.49999928  0.36063431
   0.50000043  0.00000025  0.36063413
   0.50000172  0.50000142  0.36063434
   0.33361942  0.16663154  0.58287815
   0.33340379  0.66679186  0.58289993
   0.83296405  0.16660562  0.58286931
   0.83327301  0.66655145  0.58289280
  -0.00001222 -0.00002859  0.52872230
  -0.00002328  0.50000945  0.52875163
   0.50000141  0.00000778  0.52875095
   0.50003342  0.50000613  0.52875319
   0.33333129  0.16666521  0.41713144
   0.33333386  0.66666662  0.41712683
   0.83333484  0.16666363  0.41713029
   0.83333447  0.66666910  0.41713106
   0.16411027  0.32958564  0.63789327
   0.16678187  0.83333443  0.63947743
   0.66665237  0.33330499  0.63948964
   0.66670276  0.83347606  0.63943636
   0.27728023  0.49935125  0.76505802
   0.28072985  0.50412044  0.72473971
Direct configuration=     8
   0.16666014  0.33332388  0.38826385
   0.16666153  0.83333783  0.38826446
   0.66666983  0.33333542  0.38826544
   0.66667669  0.83333729  0.38826439
   0.00025078  0.00066368  0.61157737
   0.00017310  0.49971674  0.61154169
   0.50002759 -0.00003118  0.61159226
   0.49956059  0.49987013  0.61161872
   0.33331364  0.16666768  0.49999995
   0.33333462  0.66665615  0.49998434
   0.83334766  0.16665789  0.50000152
   0.83333541  0.66668531  0.49999628
   0.16666404  0.33332416  0.47125340
   0.16666116  0.83333822  0.47125619
   0.66666625  0.33333497  0.47125933
   0.66667605  0.83333596  0.47125591
  -0.00000086 -0.00000054  0.36061255
  -0.00000056  0.49999935  0.36061216
   0.50000039  0.00000022  0.36061198
   0.50000172  0.50000145  0.36061220
   0.33365157  0.16663310  0.58288674
   0.33340545  0.66678658  0.58291471
   0.83292213  0.16659822  0.58287532
   0.83325906  0.66653247  0.58290452
  -0.00001029 -0.00002407  0.52873039
  -0.00001621  0.50001061  0.52876210
   0.49999748  0.00000036  0.52875898
   0.50002776  0.50000782  0.52876521
   0.33333109  0.16666525  0.41711450
   0.33333378  0.66666650  0.41711044
   0.83333508  0.16666370  0.41711341
   0.83333456  0.66666925  0.41711407
   0.16407114  0.32952929  0.63788748
   0.16679104  0.83332414  0.63949997
   0.66665107  0.33331150  0.63951345
   0.66668476  0.83346437  0.63945851
   0.27725736  0.49932191  0.76509019
   0.28084941  0.50428437  0.72477205
Direct configuration=     9
   0.16666009  0.33332328  0.38827669
   0.16666267  0.83333899  0.38827781
   0.66666889  0.33333406  0.38827944
   0.66667657  0.83333825  0.38827758
   0.00015403  0.00045837  0.61155511
   0.00003497  0.49976703  0.61151810
   0.50002169 -0.00001153  0.61160117
   0.49972827  0.49990847  0.61159412
   0.33331783  0.16666007  0.50000452
   0.33334310  0.66666821  0.49998143
   0.83333327  0.16664639  0.50000413
   0.83333584  0.66669091  0.50000655
   0.16666891  0.33333511  0.47121409
   0.16666597  0.83333217  0.47121619
   0.66666695  0.33333533  0.47121905
   0.66666542  0.83333057  0.47121588
  -0.00000077 -0.00000059  0.36054587
  -0.00000041  0.49999958  0.36054572
   0.50000027  0.00000014  0.36054555
   0.50000170  0.50000155  0.36054579
   0.33374799  0.16663778  0.58291252
   0.33341044  0.66677073  0.58295903
   0.83279637  0.16657602  0.58289337
   0.83321721  0.66647552  0.58293965
  -0.00000451 -0.00001051  0.52875466
   0.00000499  0.50001407  0.52879352
   0.49998570 -0.00002191  0.52878305
   0.50001077  0.50001290  0.52880128
   0.33333049  0.16666537  0.41706368
   0.33333354  0.66666616  0.41706124
   0.83333579  0.16666391  0.41706277
   0.83333486  0.66666970  0.41706310
   0.16395376  0.32936025  0.63787012
   0.16681857  0.83329326  0.63956759
   0.66664718  0.33333104  0.63958488
   0.66663075  0.83342929  0.63952496
   0.27718873  0.49923389  0.76518673
   0.28120810  0.50477616  0.72486907
Direct configuration=    10
   0.16666000  0.33332210  0.38830237
   0.16666494  0.83334131  0.38830451
   0.66666700  0.33333136  0.38830745
   0.66667631  0.83334015  0.38830396
  -0.00003949  0.00004776  0.61151058
  -0.00024129  0.49986761  0.61147092
   0.50000989  0.00002776  0.61161899
   0.50006363  0.49998514  0.61154491
   0.33332623  0.16664485  0.50001366
   0.33336005  0.66669234  0.49997562
   0.83330450  0.16662341  0.50000935
   0.83333672  0.66670209  0.50002708
   0.16667865  0.33335701  0.47113545
   0.16667560  0.83332005  0.47113619
   0.66666836  0.33333606  0.47113851
   0.66664414  0.83331980  0.47113584
  -0.00000058 -0.00000070  0.36041251
  -0.00000011  0.50000003  0.36041285
   0.50000002 -0.00000003  0.36041269
   0.50000166  0.50000174  0.36041295
   0.33394083  0.16664713  0.58296409
   0.33342042  0.66673905  0.58304766
   0.83254485  0.16653161  0.58292946
   0.83313351  0.66636163  0.58300993
   0.00000705  0.00001660  0.52880318
   0.00004740  0.50002099  0.52885636
   0.49996215 -0.00006644  0.52883121
   0.49997680  0.50002305  0.52887340
   0.33332930  0.16666561  0.41696204
   0.33333307  0.66666547  0.41696286
   0.83333720  0.16666432  0.41696150
   0.83333544  0.66667060  0.41696116
   0.16371900  0.32902218  0.63783539
   0.16687363  0.83323149  0.63970284
   0.66663940  0.33337013  0.63972773
   0.66652275  0.83335915  0.63965786
   0.27705148  0.49905786  0.76537980
   0.28192548  0.50575975  0.72506310
Direct configuration=    11
   0.16665983  0.33331972  0.38835372
   0.16666948  0.83334595  0.38835791
   0.66666323  0.33332595  0.38836347
   0.66667580  0.83334395  0.38835673
  -0.00042652 -0.00077346  0.61142153
  -0.00079380  0.50006876  0.61137657
   0.49998631  0.00010635  0.61165464
   0.50073435  0.50013848  0.61144650
   0.33334302  0.16661442  0.50003194
   0.33339397  0.66674058  0.49996400
   0.83324695  0.16657744  0.50001981
   0.83333848  0.66672446  0.50006815
   0.16669812  0.33340081  0.47097819
   0.16669486  0.83329581  0.47097620
   0.66667117  0.33333751  0.47097742
   0.66660159  0.83329824  0.47097575
  -0.00000020 -0.00000091  0.36014579
   0.00000050  0.50000094  0.36014711
   0.49999953 -0.00000037  0.36014697
   0.50000158  0.50000213  0.36014728
   0.33432652  0.16666584  0.58306721
   0.33344037  0.66667568  0.58322493
   0.83204181  0.16644281  0.58300164
   0.83296611  0.66613384  0.58315048
   0.00003018  0.00007083  0.52890024
   0.00013221  0.50003483  0.52898205
   0.49991504 -0.00015549  0.52892753
   0.49990885  0.50004334  0.52901766
   0.33332691  0.16666608  0.41675875
   0.33333211  0.66666408  0.41676610
   0.83334002  0.16666515  0.41675895
   0.83333661  0.66667240  0.41675729
   0.16324948  0.32834603  0.63776595
   0.16698375  0.83310797  0.63997333
   0.66662384  0.33344829  0.64001344
   0.66630674  0.83321885  0.63992367
   0.27677699  0.49870579  0.76576593
   0.28336024  0.50772692  0.72545118
Direct configuration=    12
   0.16665967  0.33331846  0.38831026
   0.16666787  0.83334639  0.38831374
   0.66666339  0.33332726  0.38832015
   0.66667761  0.83334395  0.38831197
  -0.00048183 -0.00086668  0.61144560
  -0.00085588  0.50004426  0.61139837
   0.49996756  0.00008322  0.61170143
   0.50075378  0.50011753  0.61146872
   0.33336432  0.16660602  0.50002564
   0.33340456  0.66675994  0.49995947
   0.83321410  0.16656645  0.50001295
   0.83333438  0.66671850  0.50004443
   0.16670502  0.33341079  0.47097900
   0.16668360  0.83328389  0.47097759
   0.66667715  0.33335360  0.47098014
   0.66659936  0.83328369  0.47097684
  -0.00000048 -0.00000119  0.36008096
   0.00000129  0.50000161  0.36008274
   0.49999938 -0.00000117  0.36008268
   0.50000159  0.50000304  0.36008292
   0.33444662  0.16663835  0.58308782
   0.33345103  0.66667800  0.58326848
   0.83185029  0.16638834  0.58301321
   0.83292404  0.66607376  0.58318111
   0.00002346  0.00005150  0.52889325
   0.00013907  0.50005882  0.52897828
   0.49988719 -0.00019489  0.52891312
   0.49992372  0.50006315  0.52901769
   0.33332623  0.16666471  0.41671525
   0.33333365  0.66666617  0.41672279
   0.83333891  0.16666313  0.41671495
   0.83333715  0.66667444  0.41671652
   0.16313691  0.32818389  0.63775392
   0.16697139  0.83305844  0.64003742
   0.66663459  0.33350314  0.64008783
   0.66627355  0.83316517  0.63998690
   0.27668399  0.49858682  0.76588858
   0.28383779  0.50837748  0.72558330
Direct configuration=    13
   0.16665918  0.33331467  0.38817989
   0.16666304  0.83334772  0.38818121
   0.66666388  0.33333121  0.38819018
   0.66668302  0.83334394  0.38817769
  -0.00064777 -0.00114635  0.61151779
  -0.00104211  0.49997077  0.61146379
   0.49991133  0.00001382  0.61184180
   0.50081208  0.50005469  0.61153539
   0.33342824  0.16658080  0.50000674
   0.33343632  0.66681801  0.49994586
   0.83311554  0.16653349  0.49999236
   0.83332209  0.66670062  0.49997327
   0.16672572  0.33344075  0.47098141
   0.16664979  0.83324813  0.47098175
   0.66669511  0.33340188  0.47098833
   0.66659267  0.83324003  0.47098009
  -0.00000130 -0.00000201  0.35988647
   0.00000365  0.50000362  0.35988964
   0.49999893 -0.00000357  0.35988981
   0.50000161  0.50000576  0.35988984
   0.33480690  0.16655586  0.58314964
   0.33348298  0.66668498  0.58339910
   0.83127574  0.16622493  0.58304792
   0.83279785  0.66589351  0.58327298
   0.00000331 -0.00000649  0.52887229
   0.00015965  0.50013080  0.52896698
   0.49980362 -0.00031309  0.52886991
   0.49996834  0.50012258  0.52901779
   0.33332419  0.16666062  0.41658477
   0.33333824  0.66667245  0.41659287
   0.83333559  0.16665709  0.41658294
   0.83333877  0.66668057  0.41659422
   0.16279920  0.32769749  0.63771783
   0.16693432  0.83290985  0.64022970
   0.66666685  0.33366767  0.64031099
   0.66617397  0.83300412  0.64017661
   0.27640498  0.49822990  0.76625651
   0.28527046  0.51032916  0.72597966
Direct configuration=    14
   0.16665820  0.33330710  0.38791916
   0.16665339  0.83335039  0.38791617
   0.66666485  0.33333911  0.38793023
   0.66669384  0.83334394  0.38790911
  -0.00097964 -0.00170569  0.61166219
  -0.00141457  0.49982378  0.61159462
   0.49979887 -0.00012497  0.61212255
   0.50092869  0.49992902  0.61166873
   0.33355608  0.16653037  0.49996895
   0.33349985  0.66693415  0.49991865
   0.83291842  0.16646756  0.49995120
   0.83329750  0.66666486  0.49983094
   0.16676711  0.33350066  0.47098623
   0.16658219  0.83317660  0.47099008
   0.66673103  0.33349845  0.47100469
   0.66657929  0.83315272  0.47098660
  -0.00000296 -0.00000366  0.35949750
   0.00000839  0.50000763  0.35950344
   0.49999804 -0.00000836  0.35950406
   0.50000165  0.50001120  0.35950366
   0.33552748  0.16639088  0.58327327
   0.33354689  0.66669893  0.58366034
   0.83012664  0.16589811  0.58311734
   0.83254547  0.66553302  0.58345672
  -0.00003699 -0.00012247  0.52883037
   0.00020080  0.50027476  0.52894438
   0.49963648 -0.00054948  0.52878349
   0.50005757  0.50024144  0.52901798
   0.33332011  0.16665242  0.41632381
   0.33334744  0.66668501  0.41633302
   0.83332894  0.16664501  0.41631891
   0.83334202  0.66669282  0.41634962
   0.16212379  0.32672468  0.63764565
   0.16686018  0.83261269  0.64061425
   0.66673138  0.33399674  0.64075731
   0.66597481  0.83268202  0.64055601
   0.27584697  0.49751606  0.76699239
   0.28813579  0.51423253  0.72677237
Direct configuration=    15
   0.16665625  0.33329195  0.38739769
   0.16663408  0.83335572  0.38738607
   0.66666680  0.33335490  0.38741035
   0.66671548  0.83334392  0.38737197
  -0.00164338 -0.00282438  0.61195097
  -0.00215949  0.49952980  0.61185629
   0.49957395 -0.00040256  0.61268403
   0.50116190  0.49967766  0.61193541
   0.33381175  0.16642950  0.49989337
   0.33362692  0.66716644  0.49986422
   0.83252419  0.16633570  0.49986887
   0.83324833  0.66659334  0.49954630
   0.16684991  0.33362048  0.47099587
   0.16644698  0.83303355  0.47100673
   0.66680285  0.33369159  0.47103742
   0.66655254  0.83297809  0.47099963
  -0.00000628 -0.00000695  0.35871956
   0.00001787  0.50001567  0.35873104
   0.49999624 -0.00001794  0.35873256
   0.50000174  0.50002208  0.35873132
   0.33696862  0.16606092  0.58352054
   0.33367472  0.66672684  0.58418283
   0.82782844  0.16524447  0.58325619
   0.83204070  0.66481204  0.58382420
  -0.00011760 -0.00035443  0.52874652
   0.00028312  0.50056266  0.52889917
   0.49930220 -0.00102227  0.52861066
   0.50023604  0.50047915  0.52901836
   0.33331195  0.16663603  0.41580189
   0.33336584  0.66671012  0.41581333
   0.83331565  0.16662083  0.41579087
   0.83334851  0.66671732  0.41586043
   0.16077295  0.32477905  0.63750129
   0.16671191  0.83201835  0.64138335
   0.66686043  0.33465488  0.64164995
   0.66557650  0.83203781  0.64131483
   0.27473095  0.49608839  0.76846413
   0.29386645  0.52203926  0.72835780
Direct configuration=    16
   0.16666347  0.33330626  0.38726141
   0.16666556  0.83336053  0.38723692
   0.66665425  0.33333092  0.38725581
   0.66668835  0.83334855  0.38722071
  -0.00167247 -0.00280247  0.61204041
  -0.00214735  0.49935271  0.61195601
   0.49949111 -0.00054965  0.61281092
   0.50094366  0.49952798  0.61204291
   0.33381446  0.16641584  0.49989333
   0.33361341  0.66714545  0.49987995
   0.83249582  0.16631974  0.49986624
   0.83324821  0.66659334  0.49950501
   0.16685303  0.33361749  0.47100029
   0.16640667  0.83301682  0.47099980
   0.66681027  0.33371973  0.47103840
   0.66656933  0.83295510  0.47099360
  -0.00001293 -0.00001997  0.35859261
   0.00000595  0.50001928  0.35860595
   0.49999858 -0.00001287  0.35860637
   0.50001671  0.50002559  0.35860576
   0.33713320  0.16590972  0.58354971
   0.33367960  0.66675682  0.58424768
   0.82743536  0.16507577  0.58327267
   0.83200462  0.66474852  0.58385903
  -0.00014066 -0.00041608  0.52873052
   0.00027355  0.50060955  0.52886710
   0.49919676 -0.00116141  0.52854236
   0.50028087  0.50051014  0.52898404
   0.33332546  0.16662726  0.41572334
   0.33337655  0.66673032  0.41573119
   0.83329177  0.16661066  0.41571137
   0.83334525  0.66671354  0.41578099
   0.16055814  0.32448074  0.63752016
   0.16655831  0.83190818  0.64149214
   0.66691257  0.33479290  0.64179875
   0.66563297  0.83194946  0.64142504
   0.27459305  0.49592180  0.76854750
   0.29499253  0.52356171  0.72892001
Direct configuration=    17
   0.16666185  0.33330304  0.38729199
   0.16665850  0.83335945  0.38727039
   0.66665707  0.33333630  0.38729049
   0.66669444  0.83334751  0.38725465
  -0.00166594 -0.00280738  0.61202034
  -0.00215008  0.49939245  0.61193364
   0.49950969 -0.00051664  0.61278245
   0.50099264  0.49956157  0.61201878
   0.33381385  0.16641890  0.49989334
   0.33361644  0.66715016  0.49987642
   0.83250218  0.16632332  0.49986683
   0.83324824  0.66659334  0.49951427
   0.16685233  0.33361816  0.47099930
   0.16641572  0.83302058  0.47100136
   0.66680860  0.33371342  0.47103818
   0.66656557  0.83296026  0.47099495
  -0.00001144 -0.00001705  0.35862109
   0.00000863  0.50001847  0.35863402
   0.49999806 -0.00001400  0.35863468
   0.50001335  0.50002480  0.35863393
   0.33709627  0.16594365  0.58354316
   0.33367850  0.66675009  0.58423313
   0.82752357  0.16511363  0.58326897
   0.83201271  0.66476277  0.58385122
  -0.00013548 -0.00040224  0.52873411
   0.00027570  0.50059903  0.52887430
   0.49922042 -0.00113019  0.52855769
   0.50027081  0.50050318  0.52899174
   0.33332243  0.16662923  0.41574096
   0.33337415  0.66672579  0.41574962
   0.83329713  0.16661295  0.41572921
   0.83334598  0.66671439  0.41579881
   0.16060635  0.32454768  0.63751592
   0.16659278  0.83193290  0.64146773
   0.66690087  0.33476193  0.64176536
   0.66562030  0.83196929  0.64140031
   0.27462399  0.49595918  0.76852879
   0.29473984  0.52322008  0.72879385
Direct configuration=    18
   0.16667093  0.33332272  0.38722119
   0.16669857  0.83336381  0.38718494
   0.66664175  0.33330546  0.38719627
   0.66665842  0.83335228  0.38716778
  -0.00160311 -0.00262091  0.61207342
  -0.00202971  0.49923312  0.61200535
   0.49944360 -0.00064943  0.61283517
   0.50071222  0.49942603  0.61209898
   0.33377172  0.16641680  0.49990338
   0.33357759  0.66708399  0.49990152
   0.83253313  0.16632362  0.49987452
   0.83325690  0.66660672  0.49951351
   0.16683927  0.33359054  0.47099871
   0.16638999  0.83302654  0.47098419
   0.66680390  0.33371024  0.47102844
   0.66659225  0.83296520  0.47097980
  -0.00001853 -0.00003149  0.35859940
  -0.00000741  0.50002106  0.35861344
   0.50000147 -0.00000573  0.35861206
   0.50003112  0.50002677  0.35861270
   0.33703676  0.16581488  0.58353997
   0.33365864  0.66677602  0.58422464
   0.82745206  0.16502089  0.58326942
   0.83205638  0.66481179  0.58383220
  -0.00014709 -0.00042971  0.52873505
   0.00025239  0.50060020  0.52884788
   0.49914701 -0.00122268  0.52850765
   0.50028597  0.50049464  0.52895459
   0.33334108  0.16662191  0.41573270
   0.33338388  0.66674580  0.41573658
   0.83327008  0.16660525  0.41572095
   0.83334054  0.66670488  0.41578246
   0.16058595  0.32453256  0.63757221
   0.16642524  0.83190106  0.64146724
   0.66694099  0.33481366  0.64179306
   0.66576294  0.83197394  0.64140362
   0.27450997  0.49581542  0.76866727
   0.29528912  0.52395216  0.72892372
Direct configuration=    19
   0.16669124  0.33336671  0.38706296
   0.16678814  0.83337355  0.38699392
   0.66660752  0.33323652  0.38698567
   0.66657791  0.83336295  0.38697360
  -0.00146266 -0.00220412  0.61219206
  -0.00176066  0.49887699  0.61216565
   0.49929588 -0.00094624  0.61295302
   0.50008545  0.49912309  0.61227825
   0.33367755  0.16641211  0.49992583
   0.33349076  0.66693608  0.49995762
   0.83260231  0.16632431  0.49989172
   0.83327628  0.66663661  0.49951182
   0.16681007  0.33352878  0.47099739
   0.16633250  0.83303986  0.47094581
   0.66679338  0.33370314  0.47100666
   0.66665189  0.83297625  0.47094595
  -0.00003437 -0.00006379  0.35855092
  -0.00004324  0.50002686  0.35856743
   0.50000911  0.00001277  0.35856148
   0.50007083  0.50003117  0.35856523
   0.33690375  0.16552704  0.58353285
   0.33361425  0.66683396  0.58420565
   0.82729221  0.16481360  0.58327043
   0.83215398  0.66492134  0.58378969
  -0.00017303 -0.00049112  0.52873715
   0.00020029  0.50060282  0.52878884
   0.49898292 -0.00142941  0.52839580
   0.50031985  0.50047555  0.52887154
   0.33338276  0.16660555  0.41571423
   0.33340562  0.66679053  0.41570744
   0.83320961  0.16658805  0.41570250
   0.83332838  0.66668362  0.41574591
   0.16054036  0.32449876  0.63769803
   0.16605078  0.83182990  0.64146614
   0.66703067  0.33492927  0.64185498
   0.66608177  0.83198434  0.64141102
   0.27425510  0.49549409  0.76897678
   0.29651685  0.52558850  0.72921401
Direct configuration=    20
   0.16669492  0.33337470  0.38703422
   0.16680440  0.83337532  0.38695924
   0.66660130  0.33322400  0.38694743
   0.66656329  0.83336489  0.38693834
  -0.00143716 -0.00212843  0.61221360
  -0.00171180  0.49881232  0.61219475
   0.49926905 -0.00100013  0.61297442
   0.49997164  0.49906808  0.61231080
   0.33366045  0.16641125  0.49992990
   0.33347499  0.66690922  0.49996781
   0.83261488  0.16632443  0.49989484
   0.83327979  0.66664204  0.49951151
   0.16680477  0.33351757  0.47099716
   0.16632206  0.83304228  0.47093884
   0.66679147  0.33370185  0.47100270
   0.66666272  0.83297825  0.47093981
  -0.00003725 -0.00006965  0.35854212
  -0.00004974  0.50002791  0.35855908
   0.50001050  0.00001612  0.35855229
   0.50007804  0.50003197  0.35855661
   0.33687960  0.16547477  0.58353155
   0.33360619  0.66684449  0.58420220
   0.82726319  0.16477596  0.58327061
   0.83217171  0.66494124  0.58378197
  -0.00017774 -0.00050227  0.52873753
   0.00019083  0.50060329  0.52877812
   0.49895313 -0.00146695  0.52837549
   0.50032600  0.50047208  0.52885646
   0.33339032  0.16660258  0.41571088
   0.33340956  0.66679865  0.41570215
   0.83319864  0.16658493  0.41569915
   0.83332617  0.66667976  0.41573927
   0.16053208  0.32449263  0.63772088
   0.16598278  0.83181698  0.64146594
   0.66704695  0.33495026  0.64186623
   0.66613967  0.83198623  0.64141237
   0.27420882  0.49543574  0.76903299
   0.29673980  0.52588564  0.72926673
Direct configuration=    21
   0.16670298  0.33339117  0.38699013
   0.16683406  0.83337527  0.38689620
   0.66658789  0.33320014  0.38687175
   0.66653143  0.83336354  0.38687353
  -0.00141521 -0.00202476  0.61223180
  -0.00164725  0.49866283  0.61224786
   0.49917106 -0.00116641  0.61298433
   0.49975037  0.49893171  0.61237423