CeO2                                    
           1
     7.707464    0.000000    0.000000
    -3.853732    6.674860    0.000000
     0.000000    0.000000   28.319031
   Ce   O    C    O 
  12  24   1   1
Direct configuration=     1
   0.16663780  0.33338127  0.38744217
   0.16664411  0.83326388  0.38743213
   0.66673585  0.33336653  0.38743262
   0.66665535  0.83333445  0.38744779
   0.99970952  0.99990551  0.61247718
   0.00031849  0.50015224  0.61237781
   0.50023797  0.99976595  0.61237643
   0.50028534  0.50065607  0.61236581
   0.33327344  0.16662966  0.49992396
   0.33345755  0.66673467  0.49987585
   0.83331622  0.16648504  0.49991720
   0.83331632  0.66684763  0.49992338
   0.16673086  0.33337652  0.47110259
   0.16677107  0.83338075  0.47109497
   0.66658891  0.33326715  0.47109121
   0.66658290  0.83332209  0.47112941
   0.99999811  0.99998972  0.35918684
   0.00000253  0.50001460  0.35917659
   0.49999419  0.99999490  0.35918478
   0.50000851  0.50000875  0.35918458
   0.33359253  0.16663368  0.58404945
   0.33461984  0.66730694  0.58375603
   0.83295133  0.16509642  0.58368545
   0.83287367  0.66803435  0.58355712
   0.00040541  0.00026678  0.52881210
   0.00007943  0.50002062  0.52879650
   0.49981939  0.00002934  0.52894112
   0.49974357  0.49974956  0.52886572
   0.33333181  0.16664838  0.41609911
   0.33333143  0.66668643  0.41613044
   0.83332332  0.16666339  0.41611693
   0.83334945  0.66667501  0.41610554
   0.16666628  0.33343766  0.64079383
   0.16578953  0.83194382  0.64050280
   0.67049622  0.33565724  0.63988796
   0.66628842  0.83339055  0.64112728
   0.38945518  0.16710755  0.76554540
   0.38439613  0.16410887  0.72519992
Direct configuration=     2
   0.16667289  0.33330190  0.38745998
   0.16667063  0.83337425  0.38745230
   0.66664074  0.33332423  0.38746144
   0.66668922  0.83334481  0.38744226
   0.99998970  0.00000966  0.61243850
   0.00023425  0.50015077  0.61231364
   0.50020911  0.99997831  0.61236461
   0.50028742  0.50039760  0.61233995
   0.33332563  0.16665277  0.50000918
   0.33332328  0.66666801  0.49994552
   0.83337289  0.16663670  0.49998350
   0.83337109  0.66675958  0.49998191
   0.16671082  0.33337681  0.47102974
   0.16675988  0.83336722  0.47103044
   0.66661182  0.33327335  0.47103776
   0.66660156  0.83333728  0.47106662
   0.99997428  0.99998908  0.35917582
   0.00001883  0.50001154  0.35916458
   0.50000578  0.99997046  0.35917210
   0.50000519  0.50003768  0.35917388
   0.33356002  0.16666938  0.58402054
   0.33451366  0.66719535  0.58373719
   0.83310732  0.16521545  0.58367496
   0.83294791  0.66803548  0.58356560
   0.00050521  0.00034651  0.52878588
   0.00008391  0.50000997  0.52883872
   0.49983014  0.00004039  0.52890138
   0.49971072  0.49971097  0.52884499
   0.33331177  0.16665079  0.41608118
   0.33334488  0.66668136  0.41609797
   0.83333610  0.16664466  0.41609316
   0.83334589  0.66669951  0.41608576
   0.16661363  0.33356889  0.64077887
   0.16574280  0.83180678  0.64051103
   0.67044591  0.33563469  0.63994850
   0.66630598  0.83336722  0.64114905
   0.38950774  0.16715019  0.76576794
   0.38408941  0.16394442  0.72518955
Direct configuration=     3
   0.16664977  0.33335420  0.38744824
   0.16665315  0.83330152  0.38743901
   0.66670341  0.33335211  0.38744245
   0.66666690  0.83333798  0.38744590
   0.99980507 -0.00005897  0.61246399
   0.00028976  0.50015174  0.61235593
   0.50022813  0.99983838  0.61237240
   0.50028605  0.50056792  0.61235699
   0.33329124  0.16663754  0.49995303
   0.33341176  0.66671193  0.49989961
   0.83333555  0.16653676  0.49993981
   0.83333500  0.66681760  0.49994334
   0.16672403  0.33337662  0.47107774
   0.16676726  0.83337614  0.47107296
   0.66659672  0.33326926  0.47107298
   0.66658926  0.83332727  0.47110800
   0.99998998  0.99998950  0.35918308
   0.00000809  0.50001356  0.35917249
   0.49999814  0.99998656  0.35918045
   0.50000737  0.50001862  0.35918093
   0.33358144  0.16664586  0.58403959
   0.33458363  0.66726888  0.58374961
   0.83300453  0.16513702  0.58368187
   0.83289899  0.66803474  0.58356001
   0.00043945  0.00029397  0.52880316
   0.00008096  0.50001699  0.52881090
   0.49982306  0.00003311  0.52892757
   0.49973237  0.49973640  0.52885865
   0.33332498  0.16664920  0.41609300
   0.33333602  0.66668470  0.41611936
   0.83332768  0.16665700  0.41610883
   0.83334824  0.66668337  0.41609879
   0.16664832  0.33348242  0.64078873
   0.16577359  0.83189708  0.64050561
   0.67047906  0.33564955  0.63990861
   0.66629441  0.83338259  0.64113470
   0.38947311  0.16712209  0.76562129
   0.38429153  0.16405278  0.72519638
Direct configuration=     4
   0.16666450  0.33332287  0.38745418
   0.16666472  0.83334601  0.38744588
   0.66666425  0.33333448  0.38745302
   0.66667917  0.83334171  0.38744264
   0.99991995 -0.00001665  0.61244750
   0.00025614  0.50015235  0.61232864
   0.50021863  0.99992373  0.61236760
   0.50028912  0.50046485  0.61234624
   0.33331274  0.16664773  0.49998403
   0.33336028  0.66668546  0.49992440
   0.83335824  0.16659512  0.49996319
   0.83335554  0.66678442  0.49996355
   0.16671588  0.33337735  0.47105037
   0.16676177  0.83336975  0.47104906
   0.66660660  0.33327279  0.47105341
   0.66659719  0.83333293  0.47108479
   0.99998075  0.99998950  0.35917840
   0.00001341  0.50001165  0.35916791
   0.50000290  0.99997805  0.35917534
   0.50000605  0.50002905  0.35917664
   0.33356974  0.16666043  0.58402840
   0.33454120  0.66722462  0.58374169
   0.83306644  0.16518581  0.58367762
   0.83292862  0.66803369  0.58356343
   0.00048125  0.00032609  0.52879330
   0.00008084  0.50001281  0.52882859
   0.49982740  0.00003948  0.52891234
   0.49972008  0.49971915  0.52885097
   0.33331785  0.16665088  0.41608713
   0.33334226  0.66668286  0.41610752
   0.83333172  0.16664907  0.41610043
   0.83334544  0.66669240  0.41609210
   0.16662859  0.33353430  0.64078130
   0.16575611  0.83184454  0.64050777
   0.67045372  0.33563796  0.63993276
   0.66630223  0.83337317  0.64114183
   0.38948620  0.16713501  0.76565346
   0.38417046  0.16398857  0.72525857
Direct configuration=     5
   0.16667254  0.33330578  0.38745741
   0.16667103  0.83337027  0.38744963
   0.66664290  0.33332486  0.38745878
   0.66668586  0.83334374  0.38744085
   0.99998259  0.00000642  0.61243851
   0.00023780  0.50015269  0.61231376
   0.50021346  0.99997027  0.61236499
   0.50029080  0.50040865  0.61234038
   0.33332446  0.16665329  0.50000094
   0.33333221  0.66667103  0.49993792
   0.83337061  0.16662695  0.49997594
   0.83336673  0.66676633  0.49997457
   0.16671144  0.33337775  0.47103544
   0.16675878  0.83336626  0.47103603
   0.66661199  0.33327472  0.47104273
   0.66660152  0.83333602  0.47107213
   0.99997571  0.99998950  0.35917585
   0.00001632  0.50001061  0.35916541
   0.50000549  0.99997340  0.35917255
   0.50000533  0.50003475  0.35917431
   0.33356336  0.16666837  0.58402230
   0.33451806  0.66720048  0.58373737
   0.83310020  0.16521242  0.58367530
   0.83294478  0.66803311  0.58356529
   0.00050405  0.00034360  0.52878793
   0.00008077  0.50001053  0.52883824
   0.49982977  0.00004295  0.52890403
   0.49971338  0.49970974  0.52884678
   0.33331397  0.16665179  0.41608393
   0.33334567  0.66668186  0.41610106
   0.83333393  0.16664474  0.41609585
   0.83334391  0.66669733  0.41608846
   0.16661782  0.33356259  0.64077725
   0.16574658  0.83181589  0.64050894
   0.67043991  0.33563164  0.63994593
   0.66630650  0.83336803  0.64114571
   0.38949334  0.16714206  0.76567100
   0.38410443  0.16395355  0.72529249
Direct configuration=     6
   0.16668861  0.33327161  0.38746388
   0.16668365  0.83341878  0.38745713
   0.66660020  0.33330563  0.38747031
   0.66669925  0.83334781  0.38743729
   0.00010788  0.00005258  0.61242052
   0.00020113  0.50015336  0.61228400
   0.50020310  0.00006336  0.61235976
   0.50029414  0.50029624  0.61232865
   0.33334791  0.16666441  0.50003475
   0.33327607  0.66664216  0.49996495
   0.83339536  0.16669061  0.50000143
   0.83338913  0.66673014  0.49999662
   0.16670255  0.33337854  0.47100558
   0.16675280  0.83335929  0.47100996
   0.66662277  0.33327856  0.47102138
   0.66661016  0.83334219  0.47104682
   0.99996564  0.99998950  0.35917075
   0.00002213  0.50000853  0.35916041
   0.50001068  0.99996412  0.35916698
   0.50000388  0.50004613  0.35916963
   0.33355061  0.16668427  0.58401010
   0.33447179  0.66715221  0.58372874
   0.83316772  0.16526564  0.58367066
   0.83297709  0.66803197  0.58356902
   0.00054965  0.00037863  0.52877718
   0.00008064  0.50000598  0.52885753
   0.49983450  0.00004990  0.52888742
   0.49969998  0.49969093  0.52883840
   0.33330620  0.16665361  0.41607754
   0.33335248  0.66667985  0.41608814
   0.83333833  0.16663609  0.41608670
   0.83334086  0.66670718  0.41608116
   0.16659630  0.33361917  0.64076915
   0.16572752  0.83175859  0.64051130
   0.67041227  0.33561901  0.63997228
   0.66631503  0.83335776  0.64115348
   0.38950761  0.16715615  0.76570609
   0.38397239  0.16388352  0.72536032
Direct configuration=     7
   0.16667960  0.33329077  0.38746025
   0.16667658  0.83339158  0.38745293
   0.66662414  0.33331641  0.38746384
   0.66669174  0.83334553  0.38743929
   0.00003764  0.00002670  0.61243061
   0.00022169  0.50015298  0.61230068
   0.50020891  0.00001117  0.61236269
   0.50029227  0.50035926  0.61233523
   0.33333477  0.16665818  0.50001579
   0.33330754  0.66665834  0.49994979
   0.83338148  0.16665492  0.49998714
   0.83337657  0.66675043  0.49998426
   0.16670753  0.33337810  0.47102232
   0.16675615  0.83336320  0.47102457
   0.66661673  0.33327641  0.47103335
   0.66660532  0.83333873  0.47106101
   0.99997128  0.99998950  0.35917361
   0.00001887  0.50000970  0.35916321
   0.50000777  0.99996932  0.35917010
   0.50000469  0.50003975  0.35917225
   0.33355776  0.16667536  0.58401694
   0.33449773  0.66717927  0.58373358
   0.83312987  0.16523580  0.58367326
   0.83295898  0.66803261  0.58356693
   0.00052408  0.00035899  0.52878320
   0.00008072  0.50000853  0.52884672
   0.49983185  0.00004600  0.52889673
   0.49970750  0.49970148  0.52884310
   0.33331055  0.16665259  0.41608112
   0.33334866  0.66668098  0.41609538
   0.83333586  0.16664094  0.41609183
   0.83334257  0.66670166  0.41608525
   0.16660837  0.33358745  0.64077369
   0.16573821  0.83179071  0.64050998
   0.67042776  0.33562609  0.63995751
   0.66631024  0.83336352  0.64114912
   0.38949961  0.16714825  0.76568642
   0.38404642  0.16392278  0.72532229
Direct configuration=     8
   0.16668153  0.33328667  0.38746103
   0.16667809  0.83339741  0.38745382
   0.66661901  0.33331411  0.38746523
   0.66669335  0.83334602  0.38743886
   0.00005267  0.00003224  0.61242845
   0.00021729  0.50015306  0.61229711
   0.50020766  0.00002235  0.61236206
   0.50029267  0.50034577  0.61233382
   0.33333758  0.16665951  0.50001985
   0.33330081  0.66665488  0.49995304
   0.83338445  0.16666256  0.49999020
   0.83337926  0.66674608  0.49998690
   0.16670646  0.33337819  0.47101874
   0.16675544  0.83336236  0.47102144
   0.66661802  0.33327687  0.47103079
   0.66660635  0.83333947  0.47105797
   0.99997008  0.99998950  0.35917300
   0.00001957  0.50000945  0.35916261
   0.50000839  0.99996821  0.35916944
   0.50000452  0.50004111  0.35917169
   0.33355623  0.16667726  0.58401548
   0.33449218  0.66717348  0.58373254
   0.83313797  0.16524219  0.58367270
   0.83296285  0.66803247  0.58356738
   0.00052955  0.00036319  0.52878192
   0.00008070  0.50000799  0.52884903
   0.49983241  0.00004684  0.52889474
   0.49970589  0.49969922  0.52884209
   0.33330962  0.16665281  0.41608035
   0.33334948  0.66668074  0.41609383
   0.83333639  0.16663990  0.41609073
   0.83334220  0.66670284  0.41608438
   0.16660578  0.33359424  0.64077272
   0.16573592  0.83178384  0.64051026
   0.67042445  0.33562457  0.63996067
   0.66631127  0.83336229  0.64115005
   0.38950132  0.16714994  0.76569063
   0.38403057  0.16391438  0.72533043
Direct configuration=     9
   0.16668389  0.33328460  0.38745720
   0.16668127  0.83340234  0.38745040
   0.66661430  0.33331106  0.38746310
   0.66669290  0.83334649  0.38743339
   0.00008033  0.00004453  0.61242339
   0.00022050  0.50015759  0.61228808
   0.50021726  0.00003232  0.61236251
   0.50029957  0.50033510  0.61233235
   0.33334352  0.16666363  0.50001596
   0.33329824  0.66665165  0.49994798
   0.83339034  0.16666743  0.49998377
   0.83338167  0.66674774  0.49997894
   0.16670178  0.33338167  0.47101287
   0.16674940  0.83335468  0.47101757
   0.66662826  0.33328339  0.47102906
   0.66661272  0.83334144  0.47105471
   0.99996816  0.99998973  0.35916999
   0.00001888  0.50000805  0.35916172
   0.50001065  0.99996861  0.35916700
   0.50000533  0.50004247  0.35916955
   0.33355818  0.16668387  0.58401157
   0.33447733  0.66715870  0.58372784
   0.83316292  0.16526613  0.58367097
   0.83297734  0.66802895  0.58356899
   0.00056083  0.00038161  0.52878031
   0.00007481  0.50000677  0.52886019
   0.49983453  0.00005846  0.52889188
   0.49970282  0.49968263  0.52884175
   0.33330918  0.16665450  0.41608388
   0.33335281  0.66668080  0.41609344
   0.83333676  0.16663740  0.41609217
   0.83334020  0.66670493  0.41608706
   0.16660197  0.33361773  0.64076520
   0.16573865  0.83177070  0.64050860
   0.67038771  0.33560252  0.63997400
   0.66631716  0.83336062  0.64114883
   0.38951258  0.16716041  0.76572393
   0.38393324  0.16386274  0.72536587
Direct configuration=    10
   0.16669100  0.33327840  0.38744572
   0.16669079  0.83341713  0.38744013
   0.66660014  0.33330191  0.38745670
   0.66669157  0.83334790  0.38741696
   0.00016329  0.00008140  0.61240820
   0.00023012  0.50017116  0.61226099
   0.50024604  0.00006226  0.61236385
   0.50032027  0.50030309  0.61232795
   0.33336133  0.16667601  0.50000427
   0.33329055  0.66664195  0.49993280
   0.83340799  0.16668206  0.49996450
   0.83338888  0.66675271  0.49995504
   0.16668771  0.33339209  0.47099528
   0.16673128  0.83333162  0.47100596
   0.66665896  0.33330294  0.47102385
   0.66663181  0.83334736  0.47104491
   0.99996243  0.99999041  0.35916097
   0.00001682  0.50000386  0.35915903
   0.50001743  0.99996983  0.35915971
   0.50000779  0.50004654  0.35916314
   0.33356404  0.16670370  0.58399986
   0.33443279  0.66711438  0.58371375
   0.83323778  0.16533793  0.58366576
   0.83302081  0.66801839  0.58357382
   0.00065464  0.00043685  0.52877549
   0.00005714  0.50000314  0.52889365
   0.49984089  0.00009335  0.52888330
   0.49969363  0.49963285  0.52884072
   0.33330787  0.16665958  0.41609444
   0.33336281  0.66668098  0.41609227
   0.83333786  0.16662990  0.41609648
   0.83333420  0.66671120  0.41609511
   0.16659054  0.33368822  0.64074264
   0.16574686  0.83173129  0.64050362
   0.67027751  0.33553637  0.64001400
   0.66633484  0.83335562  0.64114514
   0.38954635  0.16719182  0.76582382
   0.38364126  0.16370782  0.72547217
Direct configuration=    11
   0.16670520  0.33326601  0.38742275
   0.16670985  0.83344671  0.38741958
   0.66657184  0.33328360  0.38744391
   0.66668889  0.83335072  0.38738412
   0.00032921  0.00015513  0.61237783
   0.00024936  0.50019831  0.61220682
   0.50030361  0.00012214  0.61236654
   0.50036166  0.50023906  0.61231916
   0.33339695  0.16670075  0.49998089
   0.33327517  0.66662256  0.49990243
   0.83344329  0.16671132  0.49992595
   0.83340331  0.66676266  0.49990724
   0.16665958  0.33341293  0.47096008
   0.16669506  0.83328552  0.47098274
   0.66672037  0.33334205  0.47101345
   0.66667000  0.83335919  0.47102531
   0.99995096  0.99999176  0.35914292
   0.00001268  0.49999546  0.35915365
   0.50003099  0.99997226  0.35914511
   0.50001269  0.50005469  0.35915031
   0.33357576  0.16674336  0.58397644
   0.33434372  0.66702572  0.58368556
   0.83338750  0.16548153  0.58365534
   0.83310775  0.66799727  0.58358348
   0.00084228  0.00054733  0.52876586
   0.00002179  0.49999587  0.52896058
   0.49985360  0.00016312  0.52886614
   0.49967523  0.49953331  0.52883866
   0.33330524  0.16666974  0.41611558
   0.33338280  0.66668135  0.41608993
   0.83334007  0.16661489  0.41610509
   0.83332220  0.66672375  0.41611121
   0.16656767  0.33382919  0.64069753
   0.16576326  0.83165248  0.64049366
   0.67005709  0.33540406  0.64009399
   0.66637019  0.83334562  0.64113778
   0.38961388  0.16725463  0.76602361
   0.38305729  0.16339797  0.72568479
Direct configuration=    12
   0.16673361  0.33324122  0.38737682
   0.16674795  0.83350588  0.38737850
   0.66651524  0.33324700  0.38741833
   0.66668354  0.83335637  0.38731843
   0.00066106  0.00030259  0.61231709
   0.00028784  0.50025260  0.61209846
   0.50041874  0.00024189  0.61237191
   0.50044445  0.50011101  0.61230156
   0.33346820  0.16675025  0.49993413
   0.33324440  0.66658378  0.49984171
   0.83351390  0.16676983  0.49984884
   0.83343217  0.66678254  0.49981163
   0.16660331  0.33345461  0.47088969
   0.16662261  0.83319330  0.47093629
   0.66684318  0.33342026  0.47099264
   0.66674638  0.83338285  0.47098611
   0.99992803  0.99999447  0.35910684
   0.00000442  0.49997868  0.35914289
   0.50005812  0.99997711  0.35911592
   0.50002251  0.50007098  0.35912465
   0.33359920  0.16682267  0.58392960
   0.33416557  0.66684841  0.58362918
   0.83368695  0.16576874  0.58363451
   0.83328162  0.66795502  0.58360280
   0.00121754  0.00076828  0.52874660
  -0.00004889  0.49998134  0.52909443
   0.49987901  0.00030267  0.52883181
   0.49963844  0.49933421  0.52883453
   0.33329998  0.16669006  0.41615784
   0.33342278  0.66668208  0.41608524
   0.83334447  0.16658487  0.41612232
   0.83329820  0.66674883  0.41614342
   0.16652193  0.33411113  0.64060731
   0.16579607  0.83149485  0.64047373
   0.66961626  0.33513945  0.64025398
   0.66644090  0.83332562  0.64112305
   0.38974895  0.16738026  0.76642318
   0.38188935  0.16277828  0.72611002
Direct configuration=    13
   0.16673246  0.33324531  0.38737322
   0.16674796  0.83350140  0.38737570
   0.66651942  0.33324822  0.38741644
   0.66668167  0.83335642  0.38731476
   0.00067144  0.00030906  0.61231517
   0.00029689  0.50025721  0.61209638
   0.50043411  0.00023710  0.61237442
   0.50045377  0.50012002  0.61230361
   0.33347460  0.16675347  0.49993078
   0.33325121  0.66658625  0.49983966
   0.83351681  0.16676684  0.49984525
   0.83343290  0.66678964  0.49980732
   0.16659806  0.33346427  0.47088329
   0.16661507  0.83317868  0.47093138
   0.66686082  0.33343127  0.47098922
   0.66675248  0.83338378  0.47098295
   0.99992839  0.99999424  0.35910275
   0.00000171  0.49997788  0.35914195
   0.50005929  0.99998017  0.35911268
   0.50002441  0.50006970  0.35912156
   0.33360689  0.16682663  0.58392541
   0.33416695  0.66684700  0.58362076
   0.83369941  0.16578175  0.58363021
   0.83329061  0.66795282  0.58360095
   0.00124569  0.00078290  0.52874217
  -0.00005516  0.49998215  0.52909761
   0.49988400  0.00031464  0.52882723
   0.49964103  0.49932149  0.52883080
   0.33330183  0.16669119  0.41615854
   0.33342797  0.66668489  0.41608239
   0.83334219  0.16658163  0.41612090
   0.83329592  0.66675022  0.41614294
   0.16652584  0.33412955  0.64059816
   0.16581190  0.83149722  0.64047020
   0.66956366  0.33510513  0.64026652
   0.66644901  0.83332820  0.64111825
   0.38976669  0.16739548  0.76647643
   0.38176011  0.16271015  0.72614804
Direct configuration=    14
   0.16672901  0.33325759  0.38736243
   0.16674796  0.83348796  0.38736731
   0.66653197  0.33325187  0.38741078
   0.66667604  0.83335655  0.38730375
   0.00070256  0.00032845  0.61230938
   0.00032402  0.50027105  0.61209013
   0.50048022  0.00022272  0.61238197
   0.50048171  0.50014702  0.61230977
   0.33349380  0.16676315  0.49992075
   0.33327165  0.66659363  0.49983352
   0.83352555  0.16675788  0.49983445
   0.83343509  0.66681094  0.49979436
   0.16658232  0.33349325  0.47086407
   0.16659245  0.83313482  0.47091665
   0.66691373  0.33346431  0.47097896
   0.66677078  0.83338658  0.47097345
   0.99992949  0.99999356  0.35909047
  -0.00000644  0.49997545  0.35913912
   0.50006279  0.99998933  0.35910293
   0.50003011  0.50006585  0.35911228
   0.33362994  0.16683853  0.58391287
   0.33417109  0.66684279  0.58359552
   0.83373679  0.16582080  0.58361732
   0.83331758  0.66794624  0.58359541
   0.00133016  0.00082677  0.52872888
  -0.00007398  0.49998460  0.52910717
   0.49989896  0.00035054  0.52881349
   0.49964879  0.49928333  0.52881962
   0.33330740  0.16669461  0.41616063
   0.33344355  0.66669333  0.41607384
   0.83333536  0.16657190  0.41611663
   0.83328909  0.66675441  0.41614148
   0.16653756  0.33418482  0.64057071
   0.16585938  0.83150434  0.64045962
   0.66940587  0.33500218  0.64030415
   0.66647334  0.83333593  0.64110384
   0.38981992  0.16744113  0.76663618
   0.38137239  0.16250577  0.72626209
Direct configuration=    15
   0.16672212  0.33328214  0.38734084
   0.16674798  0.83346108  0.38735054
   0.66655708  0.33325918  0.38739944
   0.66666477  0.83335682  0.38728173
   0.00076481  0.00036722  0.61229782
   0.00037828  0.50029872  0.61207762
   0.50057243  0.00019398  0.61239707
   0.50053760  0.50020104  0.61232207
   0.33353221  0.16678250  0.49990067
   0.33331252  0.66660840  0.49982124
   0.83354304  0.16673996  0.49981287
   0.83343945  0.66685355  0.49976846
   0.16655084  0.33355121  0.47082565
   0.16654722  0.83304709  0.47088720
   0.66701956  0.33353038  0.47095843
   0.66680739  0.83339217  0.47095446
   0.99993168  0.99999218  0.35906592
  -0.00002274  0.49997060  0.35913347
   0.50006979  0.00000767  0.35908345
   0.50004151  0.50005816  0.35909371
   0.33367606  0.16686233  0.58388777
   0.33417936  0.66683436  0.58354502
   0.83381155  0.16589890  0.58359153
   0.83337151  0.66793307  0.58358434
   0.00149909  0.00091450  0.52870229
  -0.00011161  0.49998948  0.52912628
   0.49992888  0.00042235  0.52878602
   0.49966430  0.49920700  0.52879724
   0.33331853  0.16670143  0.41616481
   0.33347471  0.66671021  0.41605675
   0.83332169  0.16655245  0.41610809
   0.83327542  0.66676277  0.41613858
   0.16656100  0.33429534  0.64051582
   0.16595434  0.83151859  0.64043845
   0.66909027  0.33479629  0.64037942
   0.66652201  0.83335140  0.64107503
   0.38992638  0.16753245  0.76695568
   0.38059694  0.16209701  0.72649020
Direct configuration=    16
   0.16672574  0.33326924  0.38735218
   0.16674797  0.83347521  0.38735935
   0.66654389  0.33325534  0.38740540
   0.66667069  0.83335668  0.38729330
   0.00073211  0.00034685  0.61230390
   0.00034978  0.50028418  0.61208419
   0.50052399  0.00020908  0.61238914
   0.50050824  0.50017266  0.61231561
   0.33351203  0.16677234  0.49991122
   0.33329105  0.66660064  0.49982769
   0.83353386  0.16674937  0.49982421
   0.83343716  0.66683117  0.49978207
   0.16656738  0.33352076  0.47084583
   0.16657098  0.83309317  0.47090268
   0.66696397  0.33349567  0.47096921
   0.66678816  0.83338923  0.47096444
   0.99993053  0.99999290  0.35907882
  -0.00001418  0.49997315  0.35913644
   0.50006611 -0.00000196  0.35909368
   0.50003552  0.50006220  0.35910346
   0.33365183  0.16684983  0.58390096
   0.33417502  0.66683879  0.58357155
   0.83377227  0.16585787  0.58360508
   0.83334318  0.66793999  0.58359016
   0.00141034  0.00086841  0.52871626
  -0.00009184  0.49998692  0.52911624
   0.49991316  0.00038463  0.52880045
   0.49965615  0.49924709  0.52880900
   0.33331269  0.16669785  0.41616261
   0.33345834  0.66670134  0.41606573
   0.83332887  0.16656267  0.41611258
   0.83328260  0.66675838  0.41614011
   0.16654869  0.33423728  0.64054466
   0.16590446  0.83151111  0.64044957
   0.66925607  0.33490445  0.64033988
   0.66649644  0.83334328  0.64109017
   0.38987045  0.16748448  0.76678784
   0.38100431  0.16231175  0.72637037
Direct configuration=    17
   0.16672315  0.33327561  0.38734929
   0.16674639  0.83346700  0.38735740
   0.66655177  0.33325858  0.38740403
   0.66666863  0.83335653  0.38729110
   0.00073426  0.00035028  0.61230342
   0.00035998  0.50028816  0.61208600
   0.50053961  0.00019883  0.61239204
   0.50051713  0.50018852  0.61231884
   0.33351842  0.16677496  0.49990854
   0.33330081  0.66660520  0.49982740
   0.83353563  0.16674432  0.49982254
   0.83343765  0.66683929  0.49978032
   0.16656272  0.33353293  0.47084001
   0.16656398  0.83307659  0.47089779
   0.66698359  0.33350772  0.47096514
   0.66679318  0.83338950  0.47096171
   0.99993222  0.99999255  0.35907467
  -0.00001748  0.49997285  0.35913552
   0.50006647  0.00000210  0.35909037
   0.50003769  0.50005964  0.35910022
   0.33366148  0.16685174  0.58389743
   0.33418583  0.66684531  0.58356247
   0.83377598  0.16586280  0.58360020
   0.83334777  0.66793886  0.58358691
   0.00143223  0.00087869  0.52871091
  -0.00009682  0.49998886  0.52911429
   0.49991931  0.00039487  0.52879550
   0.49966169  0.49923888  0.52880385
   0.33331557  0.16669849  0.41616143
   0.33346418  0.66670552  0.41606169
   0.83332541  0.16655924  0.41610952
   0.83328053  0.66675942  0.41613764
   0.16655653  0.33425051  0.64053596
   0.16592548  0.83152160  0.64044552
   0.66920292  0.33486856  0.64035026
   0.66650510  0.83334807  0.64108426
   0.38988682  0.16749890  0.76682993
   0.38087217  0.16224252  0.72642188
Direct configuration=    18
   0.16671539  0.33329470  0.38734063
   0.16674163  0.83344237  0.38735156
   0.66657540  0.33326830  0.38739995
   0.66666247  0.83335608  0.38728452
   0.00074073  0.00036055  0.61230199
   0.00039059  0.50030009  0.61209143
   0.50058650  0.00016807  0.61240076
   0.50054378  0.50023609  0.61232852
   0.33353759  0.16678284  0.49990053
   0.33333009  0.66661887  0.49982652
   0.83354097  0.16672917  0.49981753
   0.83343910  0.66686367  0.49977507
   0.16654875  0.33356944  0.47082253
   0.16654297  0.83302683  0.47088312
   0.66704247  0.33354386  0.47095291
   0.66680822  0.83339029  0.47095351
   0.99993731  0.99999149  0.35906221
  -0.00002739  0.49997197  0.35913278
   0.50006757  0.00001430  0.35908045
   0.50004420  0.50005198  0.35909048
   0.33369040  0.16685746  0.58388684
   0.33421829  0.66686488  0.58353525
   0.83378709  0.16587758  0.58358559
   0.83336157  0.66793547  0.58357717
   0.00149791  0.00090953  0.52869487
  -0.00011175  0.49999470  0.52910843
   0.49993776  0.00042558  0.52878064
   0.49967829  0.49921423  0.52878841
   0.33332421  0.16670042  0.41615787
   0.33348170  0.66671804  0.41604959
   0.83331503  0.16654896  0.41610034
   0.83327430  0.66676256  0.41613025
   0.16658005  0.33429021  0.64050985
   0.16598857  0.83155309  0.64043336
   0.66904350  0.33476087  0.64038139
   0.66653107  0.83336243  0.64106653
   0.38993592  0.16754218  0.76695621
   0.38047576  0.16203484  0.72657641
Direct configuration=    19
   0.16669985  0.33333289  0.38732329
   0.16673210  0.83339312  0.38733986
   0.66662267  0.33328774  0.38739178
   0.66665014  0.83335518  0.38727135
   0.00075366  0.00038110  0.61229914
   0.00045181  0.50032395  0.61210229
   0.50068026  0.00010656  0.61241819
   0.50059709  0.50033122  0.61234789
   0.33357592  0.16679859  0.49988449
   0.33338866  0.66664620  0.49982476
   0.83355164  0.16669886  0.49980751
   0.83344202  0.66691244  0.49976457
   0.16652081  0.33364246  0.47078758
   0.16650095  0.83292731  0.47085379
   0.66716024  0.33361613  0.47092846
   0.66683832  0.83339188  0.47093712
   0.99994747  0.99998938  0.35903730
  -0.00004720  0.49997019  0.35912729
   0.50006976  0.00003870  0.35906060
   0.50005722  0.50003666  0.35907102
   0.33374826  0.16686891  0.58386566
   0.33428319  0.66690400  0.58348079
   0.83380932  0.16590716  0.58355635
   0.83338915  0.66792869  0.58355768
   0.00162925  0.00097120  0.52866279
  -0.00014162  0.50000637  0.52909673
   0.49997467  0.00048701  0.52875092
   0.49971150  0.49916493  0.52875754
   0.33334149  0.16670427  0.41615076
   0.33351673  0.66674309  0.41602539
   0.83329427  0.16652838  0.41608199
   0.83326184  0.66676884  0.41611546
   0.16662710  0.33436962  0.64045765
   0.16611474  0.83161607  0.64040904
   0.66872465  0.33454550  0.64044365
   0.66658302  0.83339116  0.64103107
   0.39003412  0.16762872  0.76720877
   0.37968293  0.16161949  0.72688548
Direct configuration=    20
   0.16666879  0.33340928  0.38728861
   0.16671306  0.83329461  0.38731647
   0.66671720  0.33332661  0.38737544
   0.66662548  0.83335338  0.38724501
   0.00077952  0.00042220  0.61229343
   0.00057425  0.50037167  0.61212402
   0.50086779 -0.00001647  0.61245307
   0.50070372  0.50052149  0.61238663
   0.33365258  0.16683010  0.49985243
   0.33350580  0.66670087  0.49982124
   0.83357298  0.16663825  0.49978747
   0.83344785  0.66700996  0.49974357
   0.16646493  0.33378849  0.47071767
   0.16641692  0.83272828  0.47079512
   0.66739576  0.33376069  0.47087955
   0.66689850  0.83339505  0.47090434
   0.99996780  0.99998515  0.35898748
  -0.00008682  0.49996664  0.35911632
   0.50007413  0.00008751  0.35902090
   0.50008326  0.50000601  0.35903208
   0.33386397  0.16689180  0.58382330
   0.33441301  0.66698226  0.58337188
   0.83385377  0.16596630  0.58349789
   0.83344432  0.66791513  0.58351872
   0.00189195  0.00109456  0.52859863
  -0.00020135  0.50002973  0.52907332
   0.50004847  0.00060987  0.52869147
   0.49977792  0.49906632  0.52869579
   0.33337606  0.16671198  0.41613654
   0.33358679  0.66679320  0.41597698
   0.83325275  0.16648724  0.41604528
   0.83323692  0.66678140  0.41608587
   0.16672120  0.33452842  0.64035325
   0.16636708  0.83174203  0.64036041
   0.66808695  0.33411476  0.64056818
   0.66668692  0.83344863  0.64096016
   0.39023051  0.16780181  0.76771388
   0.37809728  0.16078877  0.72750362
Direct configuration=    21
   0.16666061  0.33343017  0.38727816
   0.16670595  0.83326748  0.38730981
   0.66674510  0.33334037  0.38736999
   0.66662206  0.83335284  0.38723723
   0.00079282  0.00043438  0.61228529
   0.00059989  0.50038264  0.61213324
   0.50091521 -0.00004147  0.61245590
   0.50073245  0.50056475  0.61239170