CeO2                                    
           1
     7.707464    0.000000    0.000000
    -3.853732    6.674860    0.000000
     0.000000    0.000000   28.319031
   Ce   O    C    O 
  12  24   1   1
Direct configuration=     1
   0.16666700  0.33333300  0.38888900
   0.16666700  0.83333300  0.38888900
   0.66666700  0.33333300  0.38888900
   0.66666700  0.83333300  0.38888900
   0.00000000  0.00000000  0.61111100
   0.00000000  0.50000000  0.61111100
   0.50000000  0.00000000  0.61111100
   0.50000000  0.50000000  0.61111100
   0.33333300  0.16666700  0.50000000
   0.33333300  0.66666700  0.50000000
   0.83333300  0.16666700  0.50000000
   0.83333300  0.66666700  0.50000000
   0.16666700  0.33333300  0.47222200
   0.16666700  0.83333300  0.47222200
   0.66666700  0.33333300  0.47222200
   0.66666700  0.83333300  0.47222200
   0.00000000  0.00000000  0.36111100
   0.00000000  0.50000000  0.36111100
   0.50000000  0.00000000  0.36111100
   0.50000000  0.50000000  0.36111100
   0.33333300  0.16666700  0.58333300
   0.33333300  0.66666700  0.58333300
   0.83333300  0.16666700  0.58333300
   0.83333300  0.66666700  0.58333300
   0.00000000  0.00000000  0.52777800
   0.00000000  0.50000000  0.52777800
   0.50000000  0.00000000  0.52777800
   0.50000000  0.50000000  0.52777800
   0.33333300  0.16666700  0.41666700
   0.33333300  0.66666700  0.41666700
   0.83333300  0.16666700  0.41666700
   0.83333300  0.66666700  0.41666700
   0.16666700  0.33333300  0.63888900
   0.16666700  0.83333300  0.63888900
   0.66666700  0.33333300  0.63888900
   0.66666700  0.83333300  0.63888900
   0.22222200  0.27777800  0.72389500
   0.22222200  0.27777800  0.76422100
Direct configuration=     2
   0.16666637  0.33333363  0.38860386
   0.16666570  0.83333199  0.38860347
   0.66666801  0.33333430  0.38860347
   0.66666781  0.83333219  0.38860335
   0.00010973  0.00010337  0.61126814
   0.00017996  0.49982004  0.61124297
   0.49998131  0.00001869  0.61132367
   0.49989663  0.49989027  0.61126814
   0.33332370  0.16667630  0.49999603
   0.33330471  0.66663874  0.50000635
   0.83336126  0.16669529  0.50000635
   0.83334304  0.66665696  0.49999975
   0.16667109  0.33332891  0.47179255
   0.16666923  0.83334084  0.47179559
   0.66665916  0.33333077  0.47179559
   0.66666743  0.83333257  0.47179690
   0.00000421  0.00000332  0.36090706
   0.00000064  0.49999936  0.36090728
   0.49999825  0.00000175  0.36090679
   0.49999668  0.49999579  0.36090706
   0.33334455  0.16665545  0.58313090
   0.33355424  0.66686879  0.58312771
   0.83313121  0.16644576  0.58312771
   0.83330172  0.66669828  0.58312878
  -0.00000133 -0.00001700  0.52821831
  -0.00001332  0.50001332  0.52819238
   0.49999597  0.00000403  0.52820952
   0.50001700  0.50000133  0.52821831
   0.33333271  0.16666729  0.41688479
   0.33332958  0.66666371  0.41688446
   0.83333629  0.16667042  0.41688446
   0.83333458  0.66666542  0.41688477
   0.16492506  0.33507494  0.63761109
   0.16674399  0.83345085  0.63915364
   0.66654915  0.33325601  0.63915364
   0.66667125  0.83332875  0.63916230
   0.22475543  0.27524457  0.72472729
   0.22130102  0.27869898  0.76508157
Direct configuration=     3
   0.16666535  0.33333465  0.38814906
   0.16666361  0.83333038  0.38814806
   0.66666962  0.33333639  0.38814806
   0.66666909  0.83333091  0.38814774
   0.00028476  0.00026824  0.61151878
   0.00046700  0.49953300  0.61145345
   0.49995151  0.00004849  0.61166287
   0.49973176  0.49971524  0.61151878
   0.33330886  0.16669114  0.49998969
   0.33325958  0.66659367  0.50001648
   0.83340633  0.16674042  0.50001648
   0.83335906  0.66664094  0.49999936
   0.16667760  0.33332240  0.47110756
   0.16667279  0.83335333  0.47111546
   0.66664667  0.33332721  0.47111546
   0.66666812  0.83333188  0.47111887
   0.00001092  0.00000863  0.36058177
   0.00000166  0.49999834  0.36058234
   0.49999546  0.00000454  0.36058108
   0.49999137  0.49998908  0.36058177
   0.33336297  0.16663703  0.58280855
   0.33390713  0.66719066  0.58280028
   0.83280934  0.16609287  0.58280028
   0.83325182  0.66674818  0.58280304
  -0.00000346 -0.00004412  0.52892060
  -0.00003458  0.50003458  0.52885331
   0.49998955  0.00001045  0.52889780
   0.50004412  0.50000346  0.52892060
   0.33333225  0.16666775  0.41723217
   0.33332412  0.66665847  0.41723131
   0.83334153  0.16667588  0.41723131
   0.83333709  0.66666291  0.41723212
   0.16214665  0.33785335  0.63557282
   0.16686679  0.83363881  0.63957575
   0.66636119  0.33313321  0.63957575
   0.66667804  0.83332196  0.63959822
   0.22879626  0.27120374  0.72605480
   0.21983206  0.28016794  0.76645418
Direct configuration=     4
   0.16665971  0.33334029  0.38812280
   0.16667162  0.83332543  0.38812560
   0.66667457  0.33332838  0.38812560
   0.66666248  0.83333752  0.38813126
  -0.00032793 -0.00047635  0.61142644
  -0.00015030  0.50015030  0.61133205
   0.50000588 -0.00000588  0.61175319
   0.50047635  0.50032793  0.61142644
   0.33336021  0.16663979  0.49997433
   0.33331347  0.66671064  0.50005162
   0.83328936  0.16668653  0.50005162
   0.83336999  0.66663001  0.50000606
   0.16670109  0.33329891  0.47085878
   0.16667165  0.83338906  0.47086103
   0.66661094  0.33332835  0.47086103
   0.66668127  0.83331873  0.47086560
   0.00001061  0.00000546  0.36028943
   0.00000088  0.49999912  0.36028933
   0.49999588  0.00000412  0.36028929
   0.49999454  0.49998939  0.36028943
   0.33336429  0.16663571  0.58291371
   0.33476869  0.66820358  0.58273977
   0.83179642  0.16523131  0.58273977
   0.83304997  0.66695003  0.58283236
   0.00007115 -0.00003384  0.52915408
  -0.00003023  0.50003023  0.52900272
   0.49992820  0.00007180  0.52908421
   0.50003384  0.49992885  0.52915408
   0.33333293  0.16666707  0.41711242
   0.33332003  0.66665531  0.41710812
   0.83334469  0.16667997  0.41710812
   0.83333973  0.66666027  0.41710883
   0.16132735  0.33867265  0.63500424
   0.16702616  0.83409556  0.63988235
   0.66590444  0.33297384  0.63988235
   0.66677052  0.83322948  0.63993129
   0.23153520  0.26846480  0.72790197
   0.21888832  0.28111168  0.76632469
Direct configuration=     5
   0.16666368  0.33333632  0.38814129
   0.16666599  0.83332891  0.38814141
   0.66667109  0.33333401  0.38814141
   0.66666714  0.83333286  0.38814286
   0.00010342  0.00004786  0.61149145
   0.00028429  0.49971571  0.61141752
   0.49996760  0.00003240  0.61168960
   0.49995214  0.49989658  0.61149145
   0.33332406  0.16667594  0.49998514
   0.33327553  0.66662829  0.50002688
   0.83337171  0.16672447  0.50002688
   0.83336230  0.66663770  0.50000135
   0.16668456  0.33331544  0.47103393
   0.16667245  0.83336391  0.47104015
   0.66663609  0.33332755  0.47104015
   0.66667201  0.83332799  0.47104390
   0.00001083  0.00000769  0.36049524
   0.00000143  0.49999857  0.36049561
   0.49999558  0.00000442  0.36049472
   0.49999231  0.49998917  0.36049524
   0.33336336  0.16663664  0.58283968
   0.33416213  0.66749046  0.58278237
   0.83250954  0.16583787  0.58278237
   0.83319207  0.66680793  0.58281172
   0.00001862 -0.00004108  0.52898971
  -0.00003329  0.50003329  0.52889753
   0.49997140  0.00002860  0.52895297
   0.50004108  0.49998138  0.52898971
   0.33333245  0.16666755  0.41719673
   0.33332291  0.66665754  0.41719485
   0.83334246  0.16667709  0.41719485
   0.83333787  0.66666213  0.41719563
   0.16190415  0.33809585  0.63540453
   0.16691396  0.83377400  0.63966650
   0.66622600  0.33308604  0.63966650
   0.66670541  0.83329459  0.63969680
   0.22960693  0.27039307  0.72660152
   0.21955273  0.28044727  0.76641585
Direct configuration=     6
   0.16665799  0.33334201  0.38819351
   0.16667420  0.83332437  0.38819624
   0.66667563  0.33332580  0.38819624
   0.66666017  0.83333983  0.38820376
  -0.00051307 -0.00066489  0.61136120
  -0.00037390  0.50037390  0.61126318
   0.50001495 -0.00001495  0.61172349
   0.50066489  0.50051307  0.61136120
   0.33338139  0.16661861  0.49997013
   0.33335112  0.66676876  0.50005583
   0.83323124  0.16664888  0.50005583
   0.83336614  0.66663386  0.49999361
   0.16670752  0.33329248  0.47092934
   0.16666188  0.83339409  0.47092936
   0.66660591  0.33333812  0.47092936
   0.66668913  0.83331087  0.47093480
   0.00000999  0.00000406  0.36026303
  -0.00000007  0.50000007  0.36026246
   0.49999566  0.00000434  0.36026281
   0.49999594  0.49999001  0.36026303
   0.33336757  0.16663243  0.58301039
   0.33498850  0.66850241  0.58278237
   0.83149759  0.16501150  0.58278237
   0.83299358  0.66700642  0.58290395
   0.00008627 -0.00004469  0.52907408
  -0.00003496  0.50003496  0.52890676
   0.49990297  0.00009703  0.52898906
   0.50004469  0.49991373  0.52907408
   0.33333360  0.16666640  0.41700541
   0.33332009  0.66665681  0.41700078
   0.83334319  0.16667991  0.41700078
   0.83333990  0.66666010  0.41700278
   0.16163668  0.33836332  0.63524230
   0.16702567  0.83418485  0.63989330
   0.66581515  0.33297433  0.63989330
   0.66680945  0.83319055  0.63995308
   0.23189864  0.26810136  0.72726526
   0.21861870  0.28138130  0.76698753
Direct configuration=     7
   0.16664786  0.33335214  0.38828632
   0.16668879  0.83331629  0.38829369
   0.66668371  0.33331121  0.38829369
   0.66664778  0.83335222  0.38831199
  -0.00160864 -0.00193152  0.61112974
  -0.00154358  0.50154358  0.61098892
   0.50009910 -0.00009910  0.61178371
   0.50193152  0.50160864  0.61112974
   0.33348328  0.16651672  0.49994344
   0.33348543  0.66701839  0.50010727
   0.83298161  0.16651457  0.50010727
   0.83337297  0.66662703  0.49997986
   0.16674832  0.33325168  0.47074348
   0.16664309  0.83344772  0.47073248
   0.66655228  0.33335691  0.47073248
   0.66671955  0.83328045  0.47074090
   0.00000852 -0.00000238  0.35985036
  -0.00000274  0.50000274  0.35984812
   0.49999580  0.00000420  0.35985069
   0.50000238  0.49999148  0.35985036
   0.33337504  0.16662496  0.58331376
   0.33645704  0.67030076  0.58278236
   0.82969924  0.16354296  0.58278236
   0.83264084  0.66735916  0.58306785
   0.00020649 -0.00005112  0.52922402
  -0.00003792  0.50003792  0.52892315
   0.49978138  0.00021862  0.52905318
   0.50005112  0.49979351  0.52922402
   0.33333564  0.16666436  0.41666542
   0.33331508  0.66665552  0.41665591
   0.83334448  0.16668492  0.41665591
   0.83334351  0.66665649  0.41666006
   0.16116136  0.33883864  0.63495401
   0.16722421  0.83491497  0.64029634
   0.66508503  0.33277579  0.64029634
   0.66699434  0.83300566  0.64040852
   0.23597125  0.26402875  0.72844480
   0.21695883  0.28304117  0.76800347
Direct configuration=     8
   0.16664120  0.33335880  0.38820414
   0.16670190  0.83331248  0.38820078
   0.66668752  0.33329810  0.38820078
   0.66663836  0.83336164  0.38822535
  -0.00189744 -0.00206826  0.61112750
  -0.00198723  0.50198723  0.61095810
   0.50004820 -0.00004820  0.61190532
   0.50206826  0.50189744  0.61112750
   0.33353557  0.16646443  0.49992469
   0.33362692  0.66720495  0.50008776
   0.83279505  0.16637308  0.50008776
   0.83334687  0.66665313  0.49985253
   0.16677026  0.33322974  0.47075819
   0.16658328  0.83345015  0.47073754
   0.66654985  0.33341672  0.47073754
   0.66675875  0.83324125  0.47075339
   0.00000568 -0.00001194  0.35964470
  -0.00000725  0.50000725  0.35964022
   0.49999554  0.00000446  0.35964457
   0.50001194  0.49999432  0.35964470
   0.33340920  0.16659080  0.58346531
   0.33727065  0.67145025  0.58276449
   0.82854975  0.16272935  0.58276449
   0.83246320  0.66753680  0.58313612
   0.00022872 -0.00015410  0.52919819
  -0.00009498  0.50009498  0.52885876
   0.49966411  0.00033589  0.52896191
   0.50015410  0.49977128  0.52919819
   0.33334484  0.16665516  0.41649726
   0.33331797  0.66667016  0.41648892
   0.83332984  0.16668203  0.41648892
   0.83334691  0.66665309  0.41650087
   0.16100641  0.33899359  0.63493550
   0.16712227  0.83514959  0.64048022
   0.66485041  0.33287773  0.64048022
   0.66716444  0.83283556  0.64065575
   0.23843954  0.26156046  0.72944535
   0.21600337  0.28399663  0.76833246
Direct configuration=     9
   0.16663200  0.33336800  0.38809063
   0.16672001  0.83330720  0.38807245
   0.66669280  0.33327999  0.38807245
   0.66662534  0.83337466  0.38810568
  -0.00229638 -0.00225714  0.61112440
  -0.00260010  0.50260010  0.61091552
   0.49997790  0.00002210  0.61207331
   0.50225714  0.50229638  0.61112440
   0.33360781  0.16639219  0.49989880
   0.33382237  0.66746267  0.50006082
   0.83253733  0.16617763  0.50006082
   0.83331083  0.66668917  0.49967662
   0.16680057  0.33319943  0.47077850
   0.16650066  0.83345349  0.47074454
   0.66654651  0.33349934  0.47074454
   0.66681290  0.83318710  0.47077063
   0.00000175 -0.00002515  0.35936061
  -0.00001348  0.50001348  0.35935303
   0.49999518  0.00000482  0.35935982
   0.50002515  0.49999825  0.35936061
   0.33345638  0.16654362  0.58367467
   0.33839458  0.67303819  0.58273980
   0.82696181  0.16160542  0.58273980
   0.83221780  0.66778220  0.58323042
   0.00025942 -0.00029635  0.52916249
  -0.00017380  0.50017380  0.52876981
   0.49950210  0.00049790  0.52883581
   0.50029635  0.49974058  0.52916249
   0.33335755  0.16664245  0.41626495
   0.33332196  0.66669038  0.41625825
   0.83330962  0.16667804  0.41625825
   0.83335161  0.66664839  0.41628096
   0.16079237  0.33920763  0.63490993
   0.16698146  0.83547369  0.64073423
   0.66452631  0.33301854  0.64073423
   0.66739942  0.83260058  0.64099729
   0.24184929  0.25815071  0.73082754
   0.21468347  0.28531653  0.76878692
Direct configuration=    10
   0.16661360  0.33338640  0.38786359
   0.16675624  0.83329666  0.38781577
   0.66670334  0.33324376  0.38781577
   0.66659931  0.83340069  0.38786634
  -0.00309428 -0.00263492  0.61111821
  -0.00382583  0.50382583  0.61083037
   0.49983729  0.00016271  0.61240930
   0.50263492  0.50309428  0.61111821
   0.33375229  0.16624771  0.49984701
   0.33421328  0.66797811  0.50000692
   0.83202189  0.16578672  0.50000692
   0.83323873  0.66676127  0.49932481
   0.16686119  0.33313881  0.47081913
   0.16633542  0.83346019  0.47075854
   0.66653981  0.33366458  0.47075854
   0.66692120  0.83307880  0.47080513
  -0.00000609 -0.00005156  0.35879241
  -0.00002595  0.50002595  0.35877863
   0.49999446  0.00000554  0.35879033
   0.50005156  0.50000609  0.35879241
   0.33355076  0.16644924  0.58409338
   0.34064243  0.67621406  0.58269041
   0.82378594  0.15935757  0.58269041
   0.83172700  0.66827300  0.58341903
   0.00032083 -0.00058086  0.52909111
  -0.00033144  0.50033144  0.52859190
   0.49917808  0.00082192  0.52858363
   0.50058086  0.49967917  0.52909111
   0.33338297  0.16661703  0.41580034
   0.33332994  0.66673082  0.41579689
   0.83326918  0.16667006  0.41579689
   0.83336101  0.66663899  0.41584113
   0.16036429  0.33963571  0.63485880
   0.16669983  0.83612191  0.64124225
   0.66387809  0.33330017  0.64124225
   0.66786938  0.83213062  0.64168036
   0.24866878  0.25133122  0.73359190
   0.21204369  0.28795631  0.76969586
Direct configuration=    11
   0.16661426  0.33338574  0.38775050
   0.16677873  0.83330886  0.38768568
   0.66669114  0.33322127  0.38768568
   0.66658871  0.83341129  0.38773576
  -0.00313094 -0.00245790  0.61117955
  -0.00399160  0.50399160  0.61086828
   0.49974389  0.00025611  0.61252907
   0.50245790  0.50313094  0.61117955
   0.33376974  0.16623026  0.49984145
   0.33430327  0.66809300  0.49997954
   0.83190700  0.16569673  0.49997954
   0.83321655  0.66678345  0.49921306
   0.16687052  0.33312948  0.47085348
   0.16627948  0.83344637  0.47077914
   0.66655363  0.33372052  0.47077914
   0.66694902  0.83305098  0.47083475
  -0.00001410 -0.00006420  0.35866666
  -0.00003113  0.50003113  0.35865066
   0.49999625  0.00000375  0.35866269
   0.50006420  0.50001410  0.35866666
   0.33357725  0.16642275  0.58417166
   0.34108848  0.67693174  0.58267290
   0.82306826  0.15891152  0.58267290
   0.83163568  0.66836432  0.58344209
   0.00031802 -0.00066722  0.52904143
  -0.00038477  0.50038477  0.52854439
   0.49906899  0.00093101  0.52847618
   0.50066722  0.49968198  0.52904143
   0.33339433  0.16660567  0.41570408
   0.33334119  0.66675384  0.41570376
   0.83324616  0.16665881  0.41570376
   0.83336126  0.66663874  0.41575099
   0.16026210  0.33973790  0.63489032
   0.16649329  0.83613750  0.64134126
   0.66386250  0.33350671  0.64134126
   0.66800524  0.83199476  0.64184094
   0.25065193  0.24934807  0.73416291
   0.21117035  0.28882965  0.77009291
Direct configuration=    12
   0.16661440  0.33338560  0.38772658
   0.16678349  0.83331144  0.38765817
   0.66668856  0.33321651  0.38765817
   0.66658647  0.83341353  0.38770814
  -0.00313869 -0.00242047  0.61119252
  -0.00402666  0.50402666  0.61087630
   0.49972414  0.00027586  0.61255439
   0.50242047  0.50313869  0.61119252
   0.33377343  0.16622657  0.49984027
   0.33432230  0.66811730  0.49997375
   0.83188270  0.16567770  0.49997375
   0.83321186  0.66678814  0.49918943
   0.16687250  0.33312750  0.47086074
   0.16626765  0.83344345  0.47078350
   0.66655655  0.33373235  0.47078350
   0.66695490  0.83304510  0.47084101
  -0.00001580 -0.00006688  0.35864007
  -0.00003222  0.50003222  0.35862359
   0.49999663  0.00000337  0.35863570
   0.50006688  0.50001580  0.35864007
   0.33358285  0.16641715  0.58418821
   0.34118282  0.67708352  0.58266920
   0.82291648  0.15881718  0.58266920
   0.83161636  0.66838364  0.58344696
   0.00031742 -0.00068549  0.52903092
  -0.00039605  0.50039605  0.52853435
   0.49904592  0.00095408  0.52845346
   0.50068549  0.49968258  0.52903092
   0.33339674  0.16660326  0.41568372
   0.33334357  0.66675871  0.41568406
   0.83324129  0.16665643  0.41568406
   0.83336131  0.66663869  0.41573193
   0.16024048  0.33975952  0.63489699
   0.16644961  0.83614080  0.64136219
   0.66385920  0.33355039  0.64136219
   0.66803397  0.83196603  0.64187490
   0.25107134  0.24892866  0.73428368
   0.21098565  0.28901435  0.77017688
Direct configuration=    13
   0.16662066  0.33337934  0.38764532
   0.16680328  0.83333142  0.38756219
   0.66666858  0.33319672  0.38756219
   0.66657967  0.83342033  0.38760619
  -0.00299064 -0.00211337  0.61126890
  -0.00391929  0.50391929  0.61094371
   0.49964091  0.00035909  0.61261607
   0.50211337  0.50299064  0.61126890
   0.33375411  0.16624589  0.49984708
   0.33432614  0.66812189  0.49995368
   0.83187811  0.16567386  0.49995368
   0.83320464  0.66679536  0.49914555
   0.16686696  0.33313304  0.47088955
   0.16624041  0.83342326  0.47080020
   0.66657674  0.33375959  0.47080020
   0.66695976  0.83304024  0.47086408
  -0.00002497 -0.00007622  0.35862716
  -0.00003562  0.50003562  0.35860954
   0.49999941  0.00000059  0.35862026
   0.50007622  0.50002497  0.35862716
   0.33358828  0.16641172  0.58417862
   0.34114747  0.67714873  0.58266234
   0.82285127  0.15885253  0.58266234
   0.83163000  0.66837000  0.58342733
   0.00029943 -0.00071301  0.52898901
  -0.00041982  0.50041982  0.52852490
   0.49898905  0.00101095  0.52838280
   0.50071301  0.49970057  0.52898901
   0.33340457  0.16659543  0.41568074
   0.33335696  0.66677855  0.41568432
   0.83322145  0.16664304  0.41568432
   0.83335838  0.66664162  0.41572908
   0.16022236  0.33977764  0.63495461
   0.16625005  0.83598085  0.64135420
   0.66401915  0.33374995  0.64135420
   0.66808314  0.83191686  0.64190046
   0.25159505  0.24840495  0.73452933
   0.21079578  0.28920422  0.77021680
Direct configuration=    14
   0.16663942  0.33336058  0.38740153
   0.16686264  0.83339138  0.38727427
   0.66660862  0.33313736  0.38727427
   0.66655927  0.83344073  0.38730035
  -0.00254648 -0.00119207  0.61149804
  -0.00359717  0.50359717  0.61114594
   0.49939121  0.00060879  0.61280108
   0.50119207  0.50254648  0.61149804
   0.33369613  0.16630387  0.49986751
   0.33433766  0.66813567  0.49989344
   0.83186433  0.16566234  0.49989344
   0.83318299  0.66681701  0.49901393
   0.16685034  0.33314966  0.47097598
   0.16615869  0.83336268  0.47085030
   0.66663732  0.33384131  0.47085030
   0.66697432  0.83302568  0.47093331
  -0.00005247 -0.00010425  0.35858842
  -0.00004580  0.50004580  0.35856738
   0.50000773 -0.00000773  0.35857394
   0.50010425  0.50005247  0.35858842
   0.33360455  0.16639545  0.58414985
   0.34104144  0.67734435  0.58264176
   0.82265565  0.15895856  0.58264176
   0.83167093  0.66832907  0.58336842
   0.00024545 -0.00079556  0.52886326
  -0.00049114  0.50049114  0.52849654
   0.49881845  0.00118155  0.52817085
   0.50079556  0.49975455  0.52886326
   0.33342807  0.16657193  0.41567179
   0.33339715  0.66683807  0.41568509
   0.83316193  0.16660285  0.41568509
   0.83334959  0.66665041  0.41572052
   0.16016798  0.33983202  0.63512748
   0.16565136  0.83550100  0.64133021
   0.66449900  0.33434864  0.64133021
   0.66823063  0.83176937  0.64197715
   0.25316616  0.24683384  0.73526630
   0.21022615  0.28977385  0.77033656
Direct configuration=    15
   0.16667695  0.33332305  0.38691394
   0.16698138  0.83351129  0.38669842
   0.66648871  0.33301862  0.38669842
   0.66651848  0.83348152  0.38668865
  -0.00165817  0.00065052  0.61195631
  -0.00295293  0.50295293  0.61155040
   0.49889181  0.00110819  0.61317112
   0.49934948  0.50165817  0.61195631
   0.33358019  0.16641981  0.49990837
   0.33436070  0.66816322  0.49977298
   0.83183678  0.16563930  0.49977298
   0.83313968  0.66686032  0.49875069
   0.16681710  0.33318290  0.47114884
   0.16599523  0.83324154  0.47095051
   0.66675846  0.33400477  0.47095051
   0.66700344  0.83299656  0.47107177
  -0.00010747 -0.00016032  0.35851096
  -0.00006617  0.50006617  0.35848307
   0.50002439 -0.00002439  0.35848130
   0.50016032  0.50010747  0.35851096
   0.33363711  0.16636289  0.58409229
   0.34082938  0.67773558  0.58260059
   0.82226442  0.15917062  0.58260059
   0.83175277  0.66824723  0.58325060
   0.00013750 -0.00096066  0.52861178
  -0.00063377  0.50063377  0.52843984
   0.49847723  0.00152277  0.52774693
   0.50096066  0.49986250  0.52861178
   0.33347506  0.16652494  0.41565388
   0.33347753  0.66695710  0.41568664
   0.83304290  0.16652247  0.41568664
   0.83333201  0.66666799  0.41570340
   0.16005923  0.33994077  0.63547322
   0.16445398  0.83454131  0.64128223
   0.66545869  0.33554602  0.64128223
   0.66852562  0.83147438  0.64213052
   0.25630839  0.24369161  0.73674024
   0.20908690  0.29091310  0.77057609
Direct configuration=    16
   0.16666455  0.33333545  0.38707508
   0.16694214  0.83347166  0.38688873
   0.66652834  0.33305786  0.38688873
   0.66653196  0.83346804  0.38689080
  -0.00195174  0.00004158  0.61180486
  -0.00316584  0.50316584  0.61141674
   0.49905685  0.00094315  0.61304883
   0.49995842  0.50195174  0.61180486
   0.33361851  0.16638149  0.49989487
   0.33435309  0.66815411  0.49981279
   0.83184589  0.16564691  0.49981279
   0.83315399  0.66684601  0.49883768
   0.16682809  0.33317191  0.47109171
   0.16604925  0.83328157  0.47091739
   0.66671843  0.33395075  0.47091739
   0.66699382  0.83300618  0.47102601
  -0.00008930 -0.00014179  0.35853656
  -0.00005944  0.50005944  0.35851094
   0.50001888 -0.00001888  0.35851192
   0.50014179  0.50008930  0.35853656
   0.33362635  0.16637365  0.58411131
   0.34089946  0.67760629  0.58261420
   0.82239371  0.15910054  0.58261420
   0.83172572  0.66827428  0.58328953
   0.00017318 -0.00090610  0.52869489
  -0.00058663  0.50058663  0.52845858
   0.49859000  0.00141000  0.52788703
   0.50090610  0.49982682  0.52869489
   0.33345953  0.16654047  0.41565980
   0.33345097  0.66691776  0.41568613
   0.83308224  0.16654903  0.41568613
   0.83333782  0.66666218  0.41570905
   0.16009517  0.33990483  0.63535896
   0.16484969  0.83485847  0.64129809
   0.66514153  0.33515031  0.64129809
   0.66842813  0.83157187  0.64207983
   0.25526994  0.24473006  0.73625313
   0.20946340  0.29053660  0.77049693
Direct configuration=    17
   0.16667508  0.33332492  0.38708687
   0.16694736  0.83349172  0.38688700
   0.66650828  0.33305264  0.38688700
   0.66653384  0.83346616  0.38687459
  -0.00201324  0.00000278  0.61181029
  -0.00312236  0.50312236  0.61141267
   0.49900044  0.00099956  0.61302157
   0.49999722  0.50201324  0.61181029
   0.33357084  0.16642916  0.49988902
   0.33426734  0.66809767  0.49979274
   0.83190233  0.16573266  0.49979274
   0.83317259  0.66682741  0.49888592
   0.16680021  0.33319979  0.47106786
   0.16604613  0.83325218  0.47086968
   0.66674782  0.33395387  0.47086968
   0.66696389  0.83303611  0.47098672
  -0.00010141 -0.00014348  0.35854172
  -0.00005673  0.50005673  0.35851765
   0.50002600 -0.00002600  0.35850835
   0.50014348  0.50010141  0.35854172
   0.33359120  0.16640880  0.58410483
   0.34057422  0.67729160  0.58266680
   0.82270840  0.15942578  0.58266680
   0.83177209  0.66822791  0.58328292
   0.00018468 -0.00079448  0.52868896
  -0.00055080  0.50055080  0.52849967
   0.49854130  0.00145870  0.52785056
   0.50079448  0.49981532  0.52868896
   0.33346196  0.16653804  0.41564652
   0.33347438  0.66693669  0.41567538
   0.83306331  0.16652562  0.41567538
   0.83332625  0.66667375  0.41567603
   0.16020096  0.33979904  0.63553416
   0.16465253  0.83461104  0.64125079
   0.66538896  0.33534747  0.64125079
   0.66840007  0.83159993  0.64205870
   0.25535050  0.24464950  0.73642667
   0.20950041  0.29049959  0.77041801
Direct configuration=    18
   0.16668329  0.33331671  0.38709607
   0.16695144  0.83350737  0.38688565
   0.66649263  0.33304856  0.38688565
   0.66653529  0.83346471  0.38686194
  -0.00206120 -0.00002749  0.61181453
  -0.00308846  0.50308846  0.61140950
   0.49895645  0.00104355  0.61300031
   0.50002749  0.50206120  0.61181453
   0.33353366  0.16646634  0.49988446
   0.33420046  0.66805365  0.49977711
   0.83194635  0.16579954  0.49977711
   0.83318709  0.66681291  0.49892353
   0.16677847  0.33322153  0.47104926
   0.16604369  0.83322925  0.47083246
   0.66677075  0.33395631  0.47083246
   0.66694056  0.83305944  0.47095606
  -0.00011086 -0.00014479  0.35854574
  -0.00005462  0.50005462  0.35852289
   0.50003156 -0.00003156  0.35850557
   0.50014479  0.50011086  0.35854574
   0.33356379  0.16643621  0.58409978
   0.34032054  0.67704617  0.58270783
   0.82295383  0.15967946  0.58270783
   0.83180825  0.66819175  0.58327776
   0.00019364 -0.00070743  0.52868434
  -0.00052286  0.50052286  0.52853172
   0.49850332  0.00149668  0.52782211
   0.50070743  0.49980636  0.52868434
   0.33346385  0.16653615  0.41563616
   0.33349264  0.66695146  0.41566700
   0.83304854  0.16650736  0.41566700
   0.83331723  0.66668277  0.41565028
   0.16028348  0.33971652  0.63567080
   0.16449876  0.83441806  0.64121389
   0.66558194  0.33550124  0.64121389
   0.66837818  0.83162182  0.64204222
   0.25541333  0.24458667  0.73656201
   0.20952927  0.29047073  0.77035646
Direct configuration=    19
   0.16668705  0.33331295  0.38710315
   0.16695117  0.83351370  0.38688758
   0.66648630  0.33304883  0.38688758
   0.66653690  0.83346310  0.38685810
  -0.00209122 -0.00005154  0.61181535
  -0.00306988  0.50306988  0.61140722
   0.49893478  0.00106522  0.61298580
   0.50005154  0.50209122  0.61181535
   0.33351377  0.16648623  0.49988072
   0.33416497  0.66803116  0.49976854
   0.83196884  0.16583503  0.49976854
   0.83319403  0.66680597  0.49894482
   0.16676542  0.33323458  0.47103727
   0.16604098  0.83321552  0.47081060
   0.66678448  0.33395902  0.47081060
   0.66692733  0.83307267  0.47093794
  -0.00011529 -0.00014406  0.35854846
  -0.00005284  0.50005284  0.35852654
   0.50003450 -0.00003450  0.35850434
   0.50014406  0.50011529  0.35854846
   0.33354766  0.16645234  0.58409734
   0.34017567  0.67690164  0.58273166
   0.82309836  0.15982433  0.58273166
   0.83182670  0.66817330  0.58327474
   0.00019828 -0.00065630  0.52868307
  -0.00050621  0.50050621  0.52854968
   0.49848430  0.00151570  0.52780895
   0.50065630  0.49980172  0.52868307
   0.33346408  0.16653592  0.41563057
   0.33350209  0.66695841  0.41566231
   0.83304159  0.16649791  0.41566231
   0.83331198  0.66668802  0.41563594
   0.16033499  0.33966501  0.63575006
   0.16441794  0.83431420  0.64119239
   0.66568580  0.33558206  0.64119239
   0.66836257  0.83163743  0.64203104
   0.25549952  0.24450048  0.73658433
   0.20948549  0.29051451  0.77036753
Direct configuration=    20
   0.16669833  0.33330167  0.38712440
   0.16695035  0.83353269  0.38689339
   0.66646731  0.33304965  0.38689339
   0.66654172  0.83345828  0.38684658
  -0.00218129 -0.00012369  0.61181779
  -0.00301416  0.50301416  0.61140036
   0.49886977  0.00113023  0.61294228
   0.50012369  0.50218129  0.61181779
   0.33345413  0.16654587  0.49986950
   0.33405851  0.66796368  0.49974284
   0.83203632  0.16594149  0.49974284
   0.83321484  0.66678516  0.49900870
   0.16672628  0.33327372  0.47100131
   0.16603283  0.83317434  0.47074499
   0.66682566  0.33396717  0.47074499
   0.66688765  0.83311235  0.47088357
  -0.00012857 -0.00014187  0.35855660
  -0.00004751  0.50004751  0.35853750
   0.50004332 -0.00004332  0.35850062
   0.50014187  0.50012857  0.35855660
   0.33349927  0.16650073  0.58409002
   0.33974103  0.67646806  0.58280317
   0.82353194  0.16025897  0.58280317
   0.83188204  0.66811796  0.58326569
   0.00021220 -0.00050293  0.52867928
  -0.00045624  0.50045624  0.52860357
   0.49842725  0.00157275  0.52776945
   0.50050293  0.49978780  0.52867928
   0.33346476  0.16653524  0.41561381
   0.33353045  0.66697925  0.41564823
   0.83302075  0.16646955  0.41564823
   0.83329624  0.66670376  0.41559293
   0.16048953  0.33951047  0.63598784
   0.16417550  0.83400263  0.64112787
   0.66599737  0.33582450  0.64112787
   0.66831572  0.83168428  0.64199752
   0.25575809  0.24424191  0.73665127
   0.20935413  0.29064587  0.77040075
Direct configuration=    21
   0.16672090  0.33327910  0.38716691
   0.16694873  0.83357065  0.38690501
   0.66642935  0.33305127  0.38690501
   0.66655135  0.83344865  0.38682354
  -0.00236144 -0.00026800  0.61182268
  -0.00290273  0.50290273  0.61138663
   0.49873976  0.00126024  0.61285522
   0.50026800  0.50236144  0.61182268