CeO2                                    
           1
     7.707464    0.000000    0.000000
    -3.853732    6.674860    0.000000
     0.000000    0.000000   28.319031
   Ce   O    C    O 
  12  24   1   1
Direct configuration=     1
   0.16666700  0.33333300  0.38888900
   0.16666700  0.83333300  0.38888900
   0.66666700  0.33333300  0.38888900
   0.66666700  0.83333300  0.38888900
   0.00000000  0.00000000  0.61111100
   0.00000000  0.50000000  0.61111100
   0.50000000  0.00000000  0.61111100
   0.50000000  0.50000000  0.61111100
   0.33333300  0.16666700  0.50000000
   0.33333300  0.66666700  0.50000000
   0.83333300  0.16666700  0.50000000
   0.83333300  0.66666700  0.50000000
   0.16666700  0.33333300  0.47222200
   0.16666700  0.83333300  0.47222200
   0.66666700  0.33333300  0.47222200
   0.66666700  0.83333300  0.47222200
   0.00000000  0.00000000  0.36111100
   0.00000000  0.50000000  0.36111100
   0.50000000  0.00000000  0.36111100
   0.50000000  0.50000000  0.36111100
   0.33333300  0.16666700  0.58333300
   0.33333300  0.66666700  0.58333300
   0.83333300  0.16666700  0.58333300
   0.83333300  0.66666700  0.58333300
   0.00000000  0.00000000  0.52777800
   0.00000000  0.50000000  0.52777800
   0.50000000  0.00000000  0.52777800
   0.50000000  0.50000000  0.52777800
   0.33333300  0.16666700  0.41666700
   0.33333300  0.66666700  0.41666700
   0.83333300  0.16666700  0.41666700
   0.83333300  0.66666700  0.41666700
   0.16666700  0.33333300  0.63888900
   0.16666700  0.83333300  0.63888900
   0.66666700  0.33333300  0.63888900
   0.66666700  0.83333300  0.63888900
   0.27777800  0.33333300  0.72389500
   0.27777800  0.33333300  0.76422100
Direct configuration=     2
   0.16666575  0.33333349  0.38860429
   0.16666585  0.83333149  0.38860383
   0.66666836  0.33333388  0.38860398
   0.66666798  0.83333342  0.38860426
  -0.00002238  0.00014242  0.61121778
   0.00000233  0.49969017  0.61125195
   0.50006137  0.00008051  0.61132443
   0.49982419  0.49972750  0.61145308
   0.33332458  0.16667898  0.49999837
   0.33331383  0.66663862  0.50000448
   0.83335475  0.16668648  0.50000824
   0.83333374  0.66665770  0.50000109
   0.16666842  0.33332764  0.47179291
   0.16667195  0.83334159  0.47179451
   0.66665934  0.33332694  0.47179496
   0.66666706  0.83333605  0.47179493
  -0.00000116 -0.00000098  0.36090601
   0.00000096  0.50000039  0.36090570
   0.50000019 -0.00000167  0.36090599
   0.50000043  0.50000195  0.36090593
   0.33336240  0.16667036  0.58312819
   0.33349563  0.66679755  0.58312994
   0.83311099  0.16646864  0.58311969
   0.83332671  0.66670420  0.58312722
   0.00000293 -0.00001073  0.52821302
  -0.00000579  0.50001213  0.52819481
   0.49999474  0.00000070  0.52820931
   0.50001190  0.50000349  0.52821119
   0.33333270  0.16666572  0.41688411
   0.33333507  0.66666832  0.41688297
   0.83333180  0.16666449  0.41688352
   0.83333320  0.66666853  0.41688266
   0.16345323  0.33319664  0.63781235
   0.16675554  0.83348108  0.63917570
   0.66667750  0.33323443  0.63912471
   0.66668033  0.83337500  0.63915422
   0.28297183  0.33403420  0.72449886
   0.27585774  0.33306466  0.76500681
Direct configuration=     3
   0.16666409  0.33333415  0.38822721
   0.16666432  0.83332948  0.38822616
   0.66667016  0.33333505  0.38822649
   0.66666928  0.83333397  0.38822716
  -0.00005202  0.00033105  0.61135919
   0.00000541  0.49927983  0.61143862
   0.50014264  0.00018713  0.61160710
   0.49959135  0.49936661  0.61190613
   0.33331342  0.16669484  0.49999621
   0.33328844  0.66660104  0.50001041
   0.83338355  0.16671228  0.50001916
   0.83333472  0.66664538  0.50000252
   0.16667031  0.33332055  0.47122463
   0.16667851  0.83335296  0.47122834
   0.66664919  0.33331892  0.47122940
   0.66666714  0.83334010  0.47122932
  -0.00000270 -0.00000227  0.36063453
   0.00000223  0.50000092  0.36063381
   0.50000045 -0.00000389  0.36063447
   0.50000100  0.50000453  0.36063435
   0.33340134  0.16667481  0.58285695
   0.33371102  0.66697045  0.58286102
   0.83281697  0.16620595  0.58283719
   0.83331839  0.66675347  0.58285469
   0.00000681 -0.00002493  0.52878916
  -0.00001347  0.50002819  0.52874682
   0.49998778  0.00000162  0.52878054
   0.50002765  0.50000812  0.52878490
   0.33333230  0.16666402  0.41717164
   0.33333782  0.66667008  0.41716900
   0.83333021  0.16666118  0.41717027
   0.83333348  0.66667056  0.41716828
   0.15919696  0.33301604  0.63638645
   0.16687279  0.83367721  0.63955540
   0.66669141  0.33310389  0.63943688
   0.66669799  0.83343063  0.63950547
   0.28985047  0.33496286  0.72529859
   0.27331458  0.33270926  0.76604754
Direct configuration=     4
   0.16666315  0.33333456  0.38815559
   0.16666474  0.83332879  0.38815461
   0.66667098  0.33333446  0.38815533
   0.66666909  0.83333489  0.38815648
  -0.00016577  0.00022385  0.61136719
  -0.00007439  0.49928546  0.61145497
   0.50013666  0.00017245  0.61166746
   0.49961806  0.49935552  0.61198661
   0.33332837  0.16670810  0.49999289
   0.33329721  0.66659961  0.50001589
   0.83337156  0.16671174  0.50002159
   0.83331975  0.66663106  0.50000369
   0.16667057  0.33331519  0.47108732
   0.16667902  0.83335863  0.47109102
   0.66664490  0.33331687  0.47109180
   0.66667011  0.83334159  0.47109207
  -0.00000224 -0.00000226  0.36054459
   0.00000245  0.50000095  0.36054378
   0.50000021 -0.00000395  0.36054453
   0.50000086  0.50000422  0.36054440
   0.33343582  0.16670909  0.58282693
   0.33384051  0.66706846  0.58281977
   0.83259620  0.16604450  0.58277195
   0.83325708  0.66675443  0.58281436
   0.00001577 -0.00002354  0.52892183
  -0.00001473  0.50002812  0.52886944
   0.49997732  0.00000603  0.52891163
   0.50002742  0.49999887  0.52892902
   0.33333199  0.16666385  0.41720646
   0.33333707  0.66666923  0.41720328
   0.83333103  0.16666177  0.41720482
   0.83333401  0.66667030  0.41720258
   0.15819638  0.33295972  0.63607321
   0.16692640  0.83376916  0.63966926
   0.66664073  0.33306676  0.63953607
   0.66667936  0.83339898  0.63961639
   0.29183042  0.33526583  0.72587019
   0.27264791  0.33260272  0.76599699
Direct configuration=     5
   0.16666279  0.33333472  0.38812876
   0.16666490  0.83332853  0.38812782
   0.66667129  0.33333424  0.38812867
   0.66666902  0.83333523  0.38813001
  -0.00020838  0.00018369  0.61137019
  -0.00010428  0.49928757  0.61146110
   0.50013442  0.00016695  0.61169007
   0.49962807  0.49935137  0.61201675
   0.33333397  0.16671307  0.49999165
   0.33330050  0.66659907  0.50001795
   0.83336706  0.16671154  0.50002250
   0.83331414  0.66662569  0.50000413
   0.16667067  0.33331318  0.47103588
   0.16667921  0.83336075  0.47103958
   0.66664330  0.33331609  0.47104025
   0.66667123  0.83334215  0.47104066
  -0.00000207 -0.00000226  0.36051089
   0.00000254  0.50000097  0.36051006
   0.50000012 -0.00000397  0.36051084
   0.50000081  0.50000410  0.36051071
   0.33344874  0.16672193  0.58281569
   0.33388902  0.66710517  0.58280432
   0.83251350  0.16598403  0.58274751
   0.83323412  0.66675479  0.58279926
   0.00001912 -0.00002301  0.52897153
  -0.00001520  0.50002809  0.52891537
   0.49997341  0.00000769  0.52896073
   0.50002733  0.49999541  0.52898301
   0.33333188  0.16666379  0.41721950
   0.33333679  0.66666891  0.41721612
   0.83333134  0.16666199  0.41721776
   0.83333422  0.66667021  0.41721542
   0.15782160  0.33293863  0.63595588
   0.16694647  0.83380361  0.63971191
   0.66662175  0.33305286  0.63957323
   0.66667238  0.83338712  0.63965794
   0.29257205  0.33537931  0.72608429
   0.27239819  0.33256282  0.76597806
Direct configuration=     6
   0.16666148  0.33333517  0.38813371
   0.16666557  0.83332771  0.38813328
   0.66667181  0.33333305  0.38813414
   0.66666803  0.83333613  0.38813606
  -0.00035854 -0.00001030  0.61134256
  -0.00022407  0.49940808  0.61143170
   0.50010175  0.00011971  0.61169605
   0.49971611  0.49942676  0.61200380
   0.33335904  0.16672601  0.49998812
   0.33332103  0.66661004  0.50002379
   0.83333879  0.16670184  0.50002263
   0.83329205  0.66660882  0.50000326
   0.16667112  0.33330791  0.47100187
   0.16667673  0.83336496  0.47100529
   0.66663972  0.33331675  0.47100526
   0.66667509  0.83334154  0.47100627
  -0.00000153 -0.00000211  0.36045840
   0.00000202  0.50000070  0.36045752
   0.49999964 -0.00000347  0.36045833
   0.50000034  0.50000299  0.36045825
   0.33348895  0.16676910  0.58284979
   0.33401774  0.66720472  0.58282135
   0.83226238  0.16581827  0.58273238
   0.83314460  0.66674052  0.58281880
   0.00002978 -0.00002158  0.52899501
  -0.00001622  0.50002647  0.52893192
   0.49995524  0.00001294  0.52898244
   0.50002601  0.49998208  0.52902434
   0.33333171  0.16666405  0.41718627
   0.33333496  0.66666739  0.41718267
   0.83333229  0.16666362  0.41718425
   0.83333437  0.66666899  0.41718225
   0.15760397  0.33290771  0.63591024
   0.16698564  0.83387610  0.63976778
   0.66654858  0.33304200  0.63962700
   0.66664086  0.83332121  0.63971865
   0.29371750  0.33559182  0.72621760
   0.27194145  0.33247831  0.76608295
Direct configuration=     7
   0.16665755  0.33333655  0.38814857
   0.16666757  0.83332524  0.38814967
   0.66667337  0.33332950  0.38815056
   0.66666506  0.83333883  0.38815420
  -0.00080902 -0.00059229  0.61125966
  -0.00058343  0.49976960  0.61134352
   0.50000374 -0.00002199  0.61171399
   0.49998024  0.49965295  0.61196495
   0.33343424  0.16676480  0.49997754
   0.33338263  0.66664293  0.50004131
   0.83325397  0.16667273  0.50002303
   0.83322578  0.66655819  0.50000068
   0.16667249  0.33329208  0.47089983
   0.16666929  0.83337760  0.47090239
   0.66662899  0.33331872  0.47090028
   0.66668669  0.83333972  0.47090309
   0.00000008 -0.00000164  0.36030093
   0.00000045  0.49999989  0.36029992
   0.49999818 -0.00000195  0.36030081
   0.49999893  0.49999967  0.36030087
   0.33360959  0.16691060  0.58295211
   0.33440392  0.66750338  0.58287246
   0.83150900  0.16532101  0.58268698
   0.83287604  0.66669772  0.58287742
   0.00006176 -0.00001727  0.52906547
  -0.00001926  0.50002162  0.52898157
   0.49990074  0.00002868  0.52904757
   0.50002206  0.49994209  0.52914834
   0.33333120  0.16666481  0.41708658
   0.33332949  0.66666286  0.41708231
   0.83333515  0.16666850  0.41708371
   0.83333484  0.66666534  0.41708274
   0.15695108  0.33281493  0.63577333
   0.16710313  0.83409359  0.63993537
   0.66632908  0.33300943  0.63978831
   0.66654628  0.83312345  0.63990078
   0.29715387  0.33622937  0.72661753
   0.27057124  0.33222478  0.76639763
Direct configuration=     8
   0.16664967  0.33333929  0.38817828
   0.16667156  0.83332031  0.38818244
   0.66667650  0.33332239  0.38818338
   0.66665911  0.83334423  0.38819049
  -0.00170998 -0.00175626  0.61109386
  -0.00130216  0.50049265  0.61116715
   0.49980773 -0.00030541  0.61174987
   0.50050849  0.50010532  0.61188724
   0.33358464  0.16684240  0.49995638
   0.33350583  0.66670873  0.50007636
   0.83308432  0.16661452  0.50002382
   0.83309323  0.66645693  0.49999550
   0.16667523  0.33326042  0.47069575
   0.16665441  0.83340287  0.47069660
   0.66660753  0.33332265  0.47069032
   0.66670989  0.83333606  0.47069672
   0.00000331 -0.00000072  0.35998599
  -0.00000269  0.49999828  0.35998471
   0.49999528  0.00000109  0.35998577
   0.49999613  0.49999302  0.35998610
   0.33385088  0.16719360  0.58315675
   0.33517628  0.66810069  0.58297467
   0.83000224  0.16432649  0.58259618
   0.83233891  0.66661213  0.58299467
   0.00012572 -0.00000866  0.52920639
  -0.00002534  0.50001190  0.52908086
   0.49979175  0.00006017  0.52917783
   0.50001414  0.49986212  0.52939634
   0.33333018  0.16666635  0.41688721
   0.33331855  0.66665379  0.41688159
   0.83334086  0.16667825  0.41688263
   0.83333579  0.66665804  0.41688372
   0.15564530  0.33262938  0.63549950
   0.16733812  0.83452855  0.64027056
   0.66589007  0.33294428  0.64011094
   0.66635713  0.83272794  0.64026504
   0.30402659  0.33750446  0.72741739
   0.26783082  0.33171772  0.76702698
Direct configuration=     9
   0.16664891  0.33334175  0.38815907
   0.16667457  0.83331880  0.38816364
   0.66667702  0.33331987  0.38816148
   0.66665569  0.83334503  0.38817059
  -0.00190916 -0.00195565  0.61107894
  -0.00149321  0.50062596  0.61114856
   0.49974443 -0.00035308  0.61178058
   0.50053268  0.50015465  0.61189122
   0.33361963  0.16685268  0.49995245
   0.33355013  0.66674251  0.50007802
   0.83302164  0.16657929  0.50001673
   0.83305967  0.66644114  0.49996797
   0.16668428  0.33325797  0.47068706
   0.16663988  0.83340202  0.47068702
   0.66660411  0.33333815  0.47067904
   0.66671512  0.83332131  0.47068771
   0.00000355 -0.00000166  0.35991189
  -0.00000465  0.49999808  0.35991025
   0.49999539  0.00000263  0.35991152
   0.49999736  0.49999179  0.35991206
   0.33390609  0.16725073  0.58321718
   0.33537518  0.66828797  0.58300583
   0.82954185  0.16403784  0.58257125
   0.83219279  0.66658703  0.58302906
   0.00013656 -0.00003574  0.52919958
  -0.00003114  0.50003278  0.52906839
   0.49972484  0.00005739  0.52916179
   0.50003112  0.49985077  0.52941730
   0.33333393  0.16666775  0.41682846
   0.33331857  0.66665385  0.41682378
   0.83333853  0.16667977  0.41682292
   0.83333364  0.66665397  0.41682736
   0.15547096  0.33257854  0.63549882
   0.16734711  0.83461071  0.64034175
   0.66580265  0.33297305  0.64018260
   0.66631837  0.83259492  0.64035433
   0.30580869  0.33788038  0.72777613
   0.26718918  0.33158103  0.76703366
Direct configuration=    10
   0.16664735  0.33334675  0.38811980
   0.16668073  0.83331570  0.38812522
   0.66667809  0.33331474  0.38811673
   0.66664872  0.83334665  0.38812992
  -0.00231615 -0.00236306  0.61104845
  -0.00188358  0.50089836  0.61111058
   0.49961508 -0.00045049  0.61184332
   0.50058210  0.50025543  0.61189936
   0.33369114  0.16687369  0.49994442
   0.33364063  0.66681153  0.50008142
   0.83289357  0.16650731  0.50000224
   0.83299109  0.66640889  0.49991171
   0.16670279  0.33325298  0.47066929
   0.16661019  0.83340030  0.47066746
   0.66659712  0.33336983  0.47065600
   0.66672582  0.83329118  0.47066930
   0.00000406 -0.00000359  0.35976047
  -0.00000867  0.49999768  0.35975811
   0.49999563  0.00000577  0.35975981
   0.49999989  0.49998927  0.35976076
   0.33401892  0.16736747  0.58334065
   0.33578162  0.66867064  0.58306951
   0.82860112  0.16344804  0.58252031
   0.83189420  0.66653575  0.58309932
   0.00015872 -0.00009107  0.52918565
  -0.00004299  0.50007543  0.52904291
   0.49958814  0.00005171  0.52912902
   0.50006582  0.49982756  0.52946014
   0.33334159  0.16667060  0.41670842
   0.33331861  0.66665398  0.41670566
   0.83333379  0.16668289  0.41670090
   0.83332925  0.66664564  0.41671221
   0.15511471  0.33247466  0.63549745
   0.16736549  0.83477858  0.64048720
   0.66562402  0.33303183  0.64032903
   0.66623917  0.83232314  0.64053679
   0.30945014  0.33864851  0.72850916
   0.26587808  0.33130171  0.76704731
Direct configuration=    11
   0.16664765  0.33334930  0.38808772
   0.16668520  0.83331537  0.38809292
   0.66667717  0.33331124  0.38808001
   0.66664447  0.83334727  0.38809511
  -0.00245093 -0.00245266  0.61105432
  -0.00203273  0.50096246  0.61111307
   0.49955756 -0.00047183  0.61188084
   0.50053089  0.50025075  0.61192094
   0.33371455  0.16687624  0.49994279
   0.33367991  0.66684564  0.50007905
   0.83283503  0.16646962  0.49999271
   0.83296574  0.66640225  0.49987655
   0.16671449  0.33325468  0.47068213
   0.16659244  0.83339493  0.47067892
   0.66659555  0.33339009  0.47066598
   0.66672877  0.83327163  0.47068197
   0.00000333 -0.00000534  0.35970407
  -0.00001097  0.49999766  0.35970125
   0.49999638  0.00000717  0.35970312
   0.50000220  0.49998905  0.35970432
   0.33405522  0.16739889  0.58338983
   0.33593131  0.66883552  0.58309490
   0.82820359  0.16320694  0.58249922
   0.83177920  0.66651536  0.58312612
   0.00016343 -0.00012889  0.52916040
  -0.00005023  0.50010491  0.52901679
   0.49950983  0.00004240  0.52909192
   0.50008912  0.49982405  0.52945523
   0.33334697  0.16667216  0.41665972
   0.33332074  0.66665585  0.41665846
   0.83332918  0.16668294  0.41665114
   0.83332583  0.66664130  0.41666628
   0.15503606  0.33243185  0.63552826
   0.16733687  0.83482068  0.64053653
   0.66557862  0.33308158  0.64038041
   0.66621761  0.83220580  0.64060696
   0.31108990  0.33901156  0.72871633
   0.26521605  0.33115758  0.76713970
Direct configuration=    12
   0.16664854  0.33335693  0.38799147
   0.16669864  0.83331436  0.38799600
   0.66667441  0.33330073  0.38796983
   0.66663171  0.83334911  0.38799069
  -0.00285525 -0.00272147  0.61107193
  -0.00248020  0.50115477  0.61112053
   0.49938501 -0.00053582  0.61199341
   0.50037727  0.50023671  0.61198569
   0.33378478  0.16688391  0.49993789
   0.33379774  0.66694798  0.50007194
   0.83265942  0.16635654  0.49996412
   0.83288971  0.66638233  0.49977110
   0.16674957  0.33325977  0.47072065
   0.16653918  0.83337881  0.47071332
   0.66659086  0.33345086  0.47069592
   0.66673764  0.83321299  0.47072000
   0.00000114 -0.00001058  0.35953488
  -0.00001790  0.49999760  0.35953067
   0.49999862  0.00001136  0.35953304
   0.50000914  0.49998840  0.35953501
   0.33416411  0.16749318  0.58353736
   0.33638041  0.66933013  0.58317107
   0.82701098  0.16248363  0.58243594
   0.83143421  0.66645417  0.58320650
   0.00017754 -0.00024234  0.52908466
  -0.00007197  0.50019334  0.52893845
   0.49927489  0.00001448  0.52898062
   0.50015904  0.49981353  0.52944050
   0.33336312  0.16667683  0.41651363
   0.33332714  0.66666145  0.41651686
   0.83331534  0.16668309  0.41650187
   0.83331556  0.66662829  0.41652850
   0.15480012  0.33230343  0.63562071
   0.16725099  0.83494697  0.64068453
   0.66544240  0.33323084  0.64053456
   0.66615291  0.83185378  0.64081747
   0.31600920  0.34010074  0.72933785
   0.26322997  0.33072518  0.76741684
Direct configuration=    13
   0.16665034  0.33337219  0.38779898
   0.16672551  0.83331234  0.38780217
   0.66666890  0.33327971  0.38774948
   0.66660621  0.83335279  0.38778184
  -0.00366390 -0.00325908  0.61110714
  -0.00337513  0.50153939  0.61113546
   0.49903990 -0.00066380  0.61221854
   0.50007002  0.50020863  0.61211518
   0.33392522  0.16689924  0.49992809
   0.33403339  0.66715265  0.50005772
   0.83230819  0.16613037  0.49990694
   0.83273763  0.66634249  0.49956018
   0.16681975  0.33326995  0.47079768
   0.16643266  0.83334657  0.47078212
   0.66658147  0.33357242  0.47075580
   0.66675537  0.83309571  0.47079605
  -0.00000324 -0.00002106  0.35919651
  -0.00003175  0.49999747  0.35918950
   0.50000312  0.00001974  0.35919288
   0.50002301  0.49998709  0.35919639
   0.33438188  0.16768174  0.58383242
   0.33727860  0.67031936  0.58332341
   0.82462576  0.16103703  0.58230937
   0.83074422  0.66633180  0.58336726
   0.00020576 -0.00046924  0.52893317
  -0.00011544  0.50037020  0.52878177
   0.49880500 -0.00004136  0.52875804
   0.50029888  0.49979249  0.52941105
   0.33339543  0.16668617  0.41622145
   0.33333995  0.66667264  0.41623365
   0.83328768  0.16668339  0.41620332
   0.83329502  0.66660225  0.41625293
   0.15432824  0.33204659  0.63580560
   0.16707924  0.83519955  0.64098053
   0.66516997  0.33352936  0.64084287
   0.66602353  0.83114976  0.64123849
   0.32584780  0.34227910  0.73058088
   0.25925780  0.32986038  0.76797114
Direct configuration=    14
   0.16664980  0.33336758  0.38785712
   0.16671740  0.83331295  0.38786071
   0.66667056  0.33328606  0.38781603
   0.66661391  0.83335167  0.38784492
  -0.00341964 -0.00309669  0.61109650
  -0.00310481  0.50142321  0.61113095
   0.49914414 -0.00062514  0.61215054
   0.50016283  0.50021712  0.61207606
   0.33388280  0.16689461  0.49993105
   0.33396221  0.66709083  0.50006201
   0.83241428  0.16619869  0.49992421
   0.83278357  0.66635452  0.49962389
   0.16679855  0.33326687  0.47077441
   0.16646484  0.83335631  0.47076134
   0.66658430  0.33353570  0.47073772
   0.66675002  0.83313114  0.47077308
  -0.00000192 -0.00001790  0.35929872
  -0.00002756  0.49999751  0.35929255
   0.50000176  0.00001721  0.35929563
   0.50001882  0.49998748  0.35929867
   0.33431610  0.16762478  0.58374329
   0.33700729  0.67002056  0.58327740
   0.82534622  0.16147398  0.58234760
   0.83095264  0.66636876  0.58331870
   0.00019724 -0.00040070  0.52897893
  -0.00010231  0.50031678  0.52882910
   0.49894693 -0.00002449  0.52882527
   0.50025664  0.49979885  0.52941994
   0.33338567  0.16668335  0.41630970
   0.33333608  0.66666926  0.41631920
   0.83329603  0.16668330  0.41629350
   0.83330123  0.66661011  0.41633616
   0.15447077  0.33212417  0.63574975
   0.16713112  0.83512326  0.64089112
   0.66525226  0.33343919  0.64074975
   0.66606261  0.83136241  0.64111132
   0.32287601  0.34162112  0.73020542
   0.26045761  0.33012160  0.76780371
Direct configuration=    15
   0.16665379  0.33337140  0.38777388
   0.16673234  0.83331829  0.38777489
   0.66666177  0.33327371  0.38771851
   0.66660247  0.83335333  0.38775010
  -0.00361425 -0.00313250  0.61113703
  -0.00335133  0.50145141  0.61116433
   0.49902040 -0.00063605  0.61223699
   0.49995807  0.50013718  0.61214837
   0.33390556  0.16689077  0.49993190
   0.33402231  0.66715071  0.50005295
   0.83230719  0.16612599  0.49989998
   0.83274717  0.66635227  0.49954780
   0.16682332  0.33327624  0.47081833
   0.16642331  0.83333729  0.47079857
   0.66658381  0.33358112  0.47077296
   0.66675051  0.83308689  0.47081461
  -0.00000723 -0.00002462  0.35920219
  -0.00003334  0.49999820  0.35919473
   0.50000492  0.00001887  0.35919763
   0.50002683  0.49999077  0.35920152
   0.33434953  0.16764340  0.58382663
   0.33721953  0.67031436  0.58332172
   0.82464477  0.16106407  0.58231354
   0.83077147  0.66633534  0.58336106
   0.00019831 -0.00048555  0.52891303
  -0.00011898  0.50038413  0.52877012
   0.49875725 -0.00005500  0.52872638
   0.50030229  0.49979855  0.52938076
   0.33339988  0.16668586  0.41622290
   0.33334631  0.66667846  0.41623617
   0.83327986  0.16667814  0.41620467
   0.83329086  0.66660153  0.41625370
   0.15439513  0.33204455  0.63585325
   0.16699676  0.83513716  0.64096460
   0.66523988  0.33357641  0.64082997
   0.66604817  0.83115263  0.64123458
   0.32583224  0.34232410  0.73071952
   0.25938512  0.32986658  0.76784612
Direct configuration=    16
   0.16666576  0.33338288  0.38752417
   0.16677718  0.83333430  0.38751741
   0.66663538  0.33323665  0.38742596
   0.66656815  0.83335830  0.38746563
  -0.00419809 -0.00323992  0.61125862
  -0.00409087  0.50153599  0.61126446
   0.49864915 -0.00066876  0.61249636
   0.49934378  0.49989738  0.61236528
   0.33397385  0.16687924  0.49993443
   0.33420259  0.66733035  0.50002576
   0.83198593  0.16590790  0.49982727
   0.83263796  0.66634553  0.49931953
   0.16689761  0.33330435  0.47095010
   0.16629872  0.83328024  0.47091027
   0.66658234  0.33371736  0.47087871
   0.66675201  0.83295415  0.47093921
  -0.00002317 -0.00004478  0.35891262
  -0.00005067  0.50000030  0.35890126
   0.50001439  0.00002387  0.35890362
   0.50005086  0.50000063  0.35891005
   0.33444979  0.16769926  0.58407662
   0.33785625  0.67119574  0.58345471
   0.82254040  0.15983433  0.58221135
   0.83022795  0.66623508  0.58348816
   0.00020153 -0.00074009  0.52871532
  -0.00016898  0.50058620  0.52859317
   0.49818820 -0.00014651  0.52842972
   0.50043925  0.49979768  0.52926320
   0.33344253  0.16669339  0.41596251
   0.33337701  0.66670607  0.41598708
   0.83323135  0.16666265  0.41593821
   0.83325976  0.66657576  0.41600630
   0.15416821  0.33180570  0.63616375
   0.16659369  0.83517885  0.64118503
   0.66520275  0.33398807  0.64107064
   0.66600486  0.83052330  0.64160435
   0.33470094  0.34443305  0.73226183
   0.25616766  0.32910151  0.76797334
Direct configuration=    17
   0.16667415  0.33337945  0.38750041
   0.16679132  0.83334912  0.38748861
   0.66661808  0.33322394  0.38739112
   0.66656106  0.83335883  0.38742748
  -0.00412792 -0.00306857  0.61129513
  -0.00403767  0.50140297  0.61129768
   0.49860217 -0.00063816  0.61251171
   0.49921289  0.49981902  0.61240558
   0.33392660  0.16687071  0.49994013
   0.33415649  0.66730373  0.50002073
   0.83200329  0.16592143  0.49981534
   0.83266072  0.66635639  0.49931872
   0.16689249  0.33331239  0.47096124
   0.16628655  0.83326455  0.47090954
   0.66658613  0.33371919  0.47088126
   0.66673938  0.83295193  0.47094360
  -0.00003224 -0.00005177  0.35892105
  -0.00005302  0.50000179  0.35890889
   0.50001764  0.00002059  0.35890922
   0.50005763  0.50000910  0.35891675
   0.33437366  0.16762435  0.58406352
   0.33770596  0.67114127  0.58345509
   0.82266918  0.15993720  0.58223215
   0.83029734  0.66624613  0.58347682
   0.00019029 -0.00074032  0.52870411
  -0.00017309  0.50058796  0.52859779
   0.49810943 -0.00016741  0.52839531
   0.50041618  0.49979760  0.52922845
   0.33344901  0.16669152  0.41596420
   0.33339016  0.66671836  0.41598996
   0.83321530  0.16664990  0.41594060
   0.83325128  0.66657672  0.41600275
   0.15424963  0.33180461  0.63624015
   0.16644001  0.83505432  0.64115640
   0.66534309  0.33405443  0.64104738
   0.66604883  0.83056109  0.64159553
   0.33454307  0.34448651  0.73249151
   0.25650095  0.32913514  0.76777009
Direct configuration=    18
   0.16667431  0.33337939  0.38749996
   0.16679158  0.83334940  0.38748807
   0.66661775  0.33322370  0.38739046
   0.66656092  0.83335884  0.38742676
  -0.00412659 -0.00306534  0.61129582
  -0.00403667  0.50140046  0.61129831
   0.49860128 -0.00063758  0.61251200
   0.49921042  0.49981755  0.61240634
   0.33392571  0.16687055  0.49994024
   0.33415562  0.66730323  0.50002063
   0.83200362  0.16592168  0.49981511
   0.83266115  0.66635659  0.49931871
   0.16689239  0.33331254  0.47096145
   0.16628632  0.83326426  0.47090953
   0.66658621  0.33371922  0.47088131
   0.66673914  0.83295189  0.47094368
  -0.00003242 -0.00005190  0.35892121
  -0.00005306  0.50000182  0.35890904
   0.50001770  0.00002053  0.35890932
   0.50005776  0.50000926  0.35891688
   0.33437223  0.16762294  0.58406327
   0.33770313  0.67114024  0.58345510
   0.82267161  0.15993914  0.58223254
   0.83029865  0.66624633  0.58347661
   0.00019007 -0.00074033  0.52870390
  -0.00017317  0.50058800  0.52859788
   0.49810795 -0.00016780  0.52839466
   0.50041574  0.49979760  0.52922779
   0.33344913  0.16669149  0.41596423
   0.33339041  0.66671859  0.41599002
   0.83321500  0.16664966  0.41594065
   0.83325112  0.66657674  0.41600268
   0.15425116  0.33180459  0.63624159
   0.16643711  0.83505197  0.64115586
   0.66534573  0.33405568  0.64104694
   0.66604965  0.83056180  0.64159536
   0.33454009  0.34448752  0.73249584
   0.25650723  0.32913577  0.76776626
Direct configuration=    19
   0.16668409  0.33337552  0.38747909
   0.16680591  0.83336549  0.38746149
   0.66659854  0.33321096  0.38735746
   0.66655349  0.83335834  0.38738962
  -0.00404118 -0.00287262  0.61133447
  -0.00396560  0.50124737  0.61133295
   0.49854987 -0.00060368  0.61252187
   0.49907558  0.49973631  0.61244765
   0.33386867  0.16686056  0.49994602
   0.33409746  0.66726887  0.50001458
   0.83202828  0.16594119  0.49980145
   0.83268875  0.66636884  0.49932320
   0.16688235  0.33332101  0.47097163
   0.16627218  0.83324509  0.47090533
   0.66659195  0.33371858  0.47088135
   0.66672425  0.83295316  0.47094568
  -0.00004258 -0.00005910  0.35893501
  -0.00005510  0.50000305  0.35892202
   0.50002162  0.00001650  0.35891947
   0.50006472  0.50001884  0.35892843
   0.33427771  0.16753172  0.58404539
   0.33750925  0.67105805  0.58345569
   0.82286350  0.16008499  0.58226162
   0.83038865  0.66626114  0.58346176
   0.00017743 -0.00073235  0.52869423
  -0.00017678  0.50058370  0.52860682
   0.49802168 -0.00019101  0.52835916
   0.50038078  0.49979527  0.52918869
   0.33345580  0.16668937  0.41596863
   0.33340570  0.66673237  0.41599566
   0.83319693  0.16663445  0.41594612
   0.83324114  0.66657845  0.41600003
   0.15435974  0.33180612  0.63633361
   0.16625914  0.83490164  0.64111809
   0.66551434  0.33412442  0.64101495
   0.66610062  0.83062057  0.64157925
   0.33475114  0.34463135  0.73250815
   0.25642596  0.32908149  0.76775936
Direct configuration=    20
   0.16671343  0.33336391  0.38741646
   0.16684889  0.83341376  0.38738177
   0.66654091  0.33317275  0.38725847
   0.66653121  0.83335683  0.38727819
  -0.00378494 -0.00229445  0.61145042
  -0.00375239  0.50078812  0.61143688
   0.49839564 -0.00050198  0.61255150
   0.49867105  0.49949262  0.61257158
   0.33369755  0.16683058  0.49996336
   0.33392299  0.66716581  0.49999643
   0.83210225  0.16599973  0.49976047
   0.83277156  0.66640557  0.49933668
   0.16685223  0.33334640  0.47100215
   0.16622975  0.83318761  0.47089273
   0.66660917  0.33371666  0.47088145
   0.66667956  0.83295697  0.47095170
  -0.00007308 -0.00008069  0.35897641
  -0.00006120  0.50000673  0.35896097
   0.50003338  0.00000442  0.35894990
   0.50008560  0.50004756  0.35896310
   0.33399417  0.16725805  0.58399175
   0.33692764  0.67081146  0.58345746
   0.82343920  0.16052255  0.58234886
   0.83065864  0.66630556  0.58341722
   0.00013952 -0.00070841  0.52866521
  -0.00018762  0.50057080  0.52863365
   0.49776286 -0.00026065  0.52825264
   0.50027590  0.49978830  0.52907141
   0.33347580  0.16668301  0.41598183
   0.33345159  0.66677369  0.41601258
   0.83314273  0.16658880  0.41596255
   0.83321121  0.66658357  0.41599209
   0.15468547  0.33181069  0.63660965
   0.16572525  0.83445066  0.64100479
   0.66602016  0.33433064  0.64091900
   0.66625350  0.83079690  0.64153092
   0.33538427  0.34506283  0.73254510
   0.25618217  0.32891864  0.76773866
Direct configuration=    21
   0.16677212  0.33334071  0.38729121
   0.16693485  0.83351031  0.38722232
   0.66642564  0.33309631  0.38706048
   0.66648665  0.83335382  0.38705533
  -0.00327247 -0.00113811  0.61168231
  -0.00332598  0.49986962  0.61164474
   0.49808716 -0.00029857  0.61261076
   0.49786200  0.49900524  0.61281943