CeO2                                    
           1
     7.707464    0.000000    0.000000
    -3.853732    6.674860    0.000000
     0.000000    0.000000   28.319031
   Ce   O    C    O 
  12  24   1   1
Direct configuration=     1
   0.16666700  0.33333300  0.38888900
   0.16666700  0.83333300  0.38888900
   0.66666700  0.33333300  0.38888900
   0.66666700  0.83333300  0.38888900
   0.00000000  0.00000000  0.61111100
   0.00000000  0.50000000  0.61111100
   0.50000000  0.00000000  0.61111100
   0.50000000  0.50000000  0.61111100
   0.33333300  0.16666700  0.50000000
   0.33333300  0.66666700  0.50000000
   0.83333300  0.16666700  0.50000000
   0.83333300  0.66666700  0.50000000
   0.16666700  0.33333300  0.47222200
   0.16666700  0.83333300  0.47222200
   0.66666700  0.33333300  0.47222200
   0.66666700  0.83333300  0.47222200
   0.00000000  0.00000000  0.36111100
   0.00000000  0.50000000  0.36111100
   0.50000000  0.00000000  0.36111100
   0.50000000  0.50000000  0.36111100
   0.33333300  0.16666700  0.58333300
   0.33333300  0.66666700  0.58333300
   0.83333300  0.16666700  0.58333300
   0.83333300  0.66666700  0.58333300
   0.00000000  0.00000000  0.52777800
   0.00000000  0.50000000  0.52777800
   0.50000000  0.00000000  0.52777800
   0.50000000  0.50000000  0.52777800
   0.33333300  0.16666700  0.41666700
   0.33333300  0.66666700  0.41666700
   0.83333300  0.16666700  0.41666700
   0.83333300  0.66666700  0.41666700
   0.16666700  0.33333300  0.63888900
   0.16666700  0.83333300  0.63888900
   0.66666700  0.33333300  0.63888900
   0.66666700  0.83333300  0.63888900
   0.11111100  0.33333300  0.72389500
   0.25927900  0.33333300  0.72389500
Direct configuration=     2
   0.16666489  0.33333583  0.38859052
   0.16666893  0.83333059  0.38859097
   0.66666779  0.33333067  0.38859119
   0.66666393  0.83333423  0.38859120
  -0.00048959 -0.00086276  0.61118379
  -0.00078379  0.50009286  0.61137355
   0.50016456  0.00028874  0.61146476
   0.50115080  0.50037161  0.61129687
   0.33334473  0.16666786  0.49998257
   0.33332388  0.66666667  0.49998312
   0.83332506  0.16667743  0.49999118
   0.83333359  0.66665096  0.49999741
   0.16666912  0.33333128  0.47180117
   0.16666545  0.83333540  0.47180160
   0.66666347  0.33333497  0.47180151
   0.66666755  0.83332952  0.47180217
   0.00000065  0.00000086  0.36091408
   0.00000096  0.49999987  0.36091422
   0.49999892 -0.00000107  0.36091426
   0.49999873  0.50000003  0.36091408
   0.33321440  0.16675270  0.58314495
   0.33333191  0.66656920  0.58314582
   0.83338103  0.16662774  0.58312790
   0.83332801  0.66673063  0.58311567
   0.00000801 -0.00000279  0.52822599
   0.00000753  0.50001253  0.52820723
   0.49998953 -0.00000437  0.52819909
   0.49999528  0.49999659  0.52822398
   0.33333333  0.16666636  0.41689090
   0.33333238  0.66666675  0.41689068
   0.83333318  0.16666717  0.41689029
   0.83333373  0.66666641  0.41689082
   0.16520389  0.33310372  0.63765087
   0.16664994  0.83337786  0.63906410
   0.66653829  0.33337534  0.63894388
   0.66670724  0.83327336  0.63906892
   0.10864603  0.33371976  0.72413823
   0.26335663  0.33325149  0.72547047
Direct configuration=     3
   0.16666610  0.33333421  0.38876135
   0.16666782  0.83333197  0.38876154
   0.66666734  0.33333201  0.38876164
   0.66666569  0.83333352  0.38876164
  -0.00020938 -0.00036897  0.61114213
  -0.00033520  0.50003971  0.61122328
   0.50007038  0.00012348  0.61126229
   0.50049215  0.50015892  0.61119049
   0.33333802  0.16666737  0.49999254
   0.33332910  0.66666686  0.49999278
   0.83332960  0.16667146  0.49999623
   0.83333325  0.66666014  0.49999889
   0.16666791  0.33333226  0.47204203
   0.16666634  0.83333403  0.47204221
   0.66666549  0.33333384  0.47204217
   0.66666723  0.83333151  0.47204245
   0.00000028  0.00000037  0.36102678
   0.00000041  0.49999994  0.36102685
   0.49999954 -0.00000046  0.36102686
   0.49999946  0.50000001  0.36102678
   0.33328228  0.16670365  0.58325258
   0.33333253  0.66662518  0.58325295
   0.83335354  0.16665021  0.58324528
   0.83333087  0.66669421  0.58324005
   0.00000343 -0.00000119  0.52796959
   0.00000322  0.50000536  0.52796156
   0.49999552 -0.00000187  0.52795809
   0.49999798  0.49999854  0.52796873
   0.33333314  0.16666673  0.41676276
   0.33333273  0.66666689  0.41676266
   0.83333308  0.16666707  0.41676249
   0.83333331  0.66666675  0.41676272
   0.16604128  0.33323495  0.63835950
   0.16665971  0.83335218  0.63896388
   0.66661196  0.33335111  0.63891247
   0.66668421  0.83330750  0.63896594
   0.11005682  0.33349840  0.72399902
   0.26102285  0.33329814  0.72456877
Direct configuration=     4
   0.16666556  0.33333490  0.38867254
   0.16666825  0.83333139  0.38867277
   0.66666758  0.33333149  0.38867289
   0.66666498  0.83333389  0.38867297
  -0.00035567 -0.00062392  0.61116057
  -0.00056043  0.50006782  0.61129803
   0.50011264  0.00019965  0.61136601
   0.50082756  0.50027346  0.61124305
   0.33334380  0.16666697  0.49998871
   0.33332620  0.66666869  0.49999093
   0.83332445  0.16667502  0.49999533
   0.83333383  0.66665358  0.49999522
   0.16666880  0.33333100  0.47191015
   0.16666438  0.83333489  0.47191049
   0.66666446  0.33333573  0.47191048
   0.66666862  0.83332979  0.47191102
   0.00000048  0.00000049  0.36096127
   0.00000067  0.50000000  0.36096135
   0.49999920 -0.00000077  0.36096139
   0.49999916  0.49999999  0.36096127
   0.33325538  0.16672575  0.58319738
   0.33334447  0.66661309  0.58319793
   0.83334227  0.16662470  0.58318326
   0.83332565  0.66671211  0.58317509
   0.00000358 -0.00000753  0.52810842
   0.00000115  0.50001101  0.52809515
   0.49999224 -0.00000151  0.52809009
   0.50000296  0.49999911  0.52810784
   0.33333331  0.16666647  0.41682723
   0.33333260  0.66666691  0.41682695
   0.83333297  0.16666705  0.41682672
   0.83333352  0.66666651  0.41682733
   0.16557678  0.33316167  0.63798307
   0.16665386  0.83336674  0.63902184
   0.66656973  0.33336575  0.63893326
   0.66669743  0.83328691  0.63902557
   0.11055616  0.33362441  0.72407396
   0.26105141  0.33327277  0.72507245
Direct configuration=     5
   0.16666393  0.33333695  0.38840612
   0.16666955  0.83332967  0.38840643
   0.66666828  0.33332995  0.38840665
   0.66666285  0.83333498  0.38840693
  -0.00079453 -0.00138875  0.61121589
  -0.00123611  0.50015213  0.61152226
   0.50023942  0.00042816  0.61167715
   0.50183377  0.50061707  0.61140073
   0.33336116  0.16666576  0.49997722
   0.33331750  0.66667420  0.49998540
   0.83330900  0.16668572  0.49999263
   0.83333558  0.66663391  0.49998422
   0.16667149  0.33332722  0.47151452
   0.16665848  0.83333750  0.47151534
   0.66666137  0.33334140  0.47151541
   0.66667279  0.83332463  0.47151674
   0.00000107  0.00000088  0.36076472
   0.00000145  0.50000017  0.36076487
   0.49999817 -0.00000169  0.36076498
   0.49999828  0.49999993  0.36076475
   0.33317467  0.16679206  0.58303178
   0.33338030  0.66657681  0.58303289
   0.83330847  0.16654818  0.58299720
   0.83331001  0.66676582  0.58298022
   0.00000402 -0.00002653  0.52852492
  -0.00000508  0.50002797  0.52849591
   0.49998239 -0.00000044  0.52848608
   0.50001790  0.50000081  0.52852516
   0.33333383  0.16666570  0.41702066
   0.33333218  0.66666696  0.41701983
   0.83333266  0.16666698  0.41701941
   0.83333415  0.66666579  0.41702116
   0.16418328  0.33294185  0.63685377
   0.16663634  0.83341040  0.63919572
   0.66644306  0.33340966  0.63899561
   0.66673708  0.83322516  0.63920445
   0.11205416  0.33400243  0.72429876
   0.26113711  0.33319663  0.72658351
Direct configuration=     6
   0.16666067  0.33334107  0.38787328
   0.16667213  0.83332621  0.38787376
   0.66666970  0.33332688  0.38787416
   0.66665859  0.83333715  0.38787486
  -0.00167227 -0.00291843  0.61132654
  -0.00258748  0.50032075  0.61197072
   0.50049298  0.00088517  0.61229943
   0.50384621  0.50130428  0.61171609
   0.33339586  0.16666335  0.49995424
   0.33330010  0.66668521  0.49997432
   0.83327810  0.16670711  0.49998724
   0.83333907  0.66659457  0.49996221
   0.16667687  0.33331966  0.47072325
   0.16664670  0.83334272  0.47072504
   0.66665518  0.33335274  0.47072528
   0.66668111  0.83331430  0.47072816
   0.00000226  0.00000165  0.36037162
   0.00000300  0.50000051  0.36037191
   0.49999611 -0.00000353  0.36037215
   0.49999651  0.49999980  0.36037169
   0.33301325  0.16692467  0.58270058
   0.33345195  0.66650427  0.58270281
   0.83324085  0.16639514  0.58262508
   0.83327873  0.66687323  0.58259046
   0.00000490 -0.00006453  0.52935792
  -0.00001753  0.50006188  0.52929744
   0.49996270  0.00000170  0.52927808
   0.50004777  0.50000420  0.52935981
   0.33333487  0.16666415  0.41740752
   0.33333134  0.66666706  0.41740558
   0.83333202  0.16666685  0.41740479
   0.83333540  0.66666434  0.41740881
   0.16139628  0.33250220  0.63459519
   0.16660129  0.83349772  0.63954347
   0.66618971  0.33349749  0.63912032
   0.66681638  0.83310165  0.63956222
   0.11505016  0.33475846  0.72474836
   0.26130851  0.33304437  0.72960562
Direct configuration=     7
   0.16666238  0.33333891  0.38815286
   0.16667078  0.83332802  0.38815324
   0.66666896  0.33332849  0.38815355
   0.66666082  0.83333601  0.38815404
  -0.00121173 -0.00211582  0.61126848
  -0.00187843  0.50023227  0.61173542
   0.50035994  0.00064538  0.61197293
   0.50279030  0.50094370  0.61155062
   0.33337765  0.16666462  0.49996630
   0.33330923  0.66667943  0.49998013
   0.83329432  0.16669588  0.49999007
   0.83333724  0.66661521  0.49997376
   0.16667405  0.33332363  0.47113842
   0.16665288  0.83333998  0.47113970
   0.66665843  0.33334679  0.47113985
   0.66667674  0.83331972  0.47114192
   0.00000163  0.00000124  0.36057788
   0.00000219  0.50000033  0.36057809
   0.49999719 -0.00000256  0.36057826
   0.49999744  0.49999987  0.36057792
   0.33309795  0.16685509  0.58287435
   0.33341435  0.66654233  0.58287600
   0.83327633  0.16647544  0.58282033
   0.83329514  0.66681687  0.58279496
   0.00000444 -0.00004459  0.52892085
  -0.00001100  0.50004409  0.52887689
   0.49997303  0.00000058  0.52886253
   0.50003209  0.50000242  0.52892187
   0.33333433  0.16666496  0.41720454
   0.33333178  0.66666700  0.41720318
   0.83333235  0.16666692  0.41720259
   0.83333474  0.66666510  0.41720541
   0.16285859  0.33273288  0.63578024
   0.16661968  0.83345190  0.63936101
   0.66632264  0.33345141  0.63905489
   0.66677477  0.83316645  0.63937450
   0.11347819  0.33436178  0.72451246
   0.26121858  0.33312426  0.72801995
Direct configuration=     8
   0.16666148  0.33333872  0.38817886
   0.16667227  0.83332862  0.38817779
   0.66666868  0.33332670  0.38817755
   0.66666019  0.83333748  0.38817922
  -0.00114758 -0.00194235  0.61122417
  -0.00167936  0.50019863  0.61168585
   0.50026919  0.00049852  0.61192183
   0.50251406  0.50091937  0.61148695
   0.33339743  0.16665921  0.49998602
   0.33330484  0.66669420  0.50001875
   0.83327134  0.16670294  0.50001157
   0.83334168  0.66659782  0.49994074
   0.16667522  0.33331509  0.47111263
   0.16663315  0.83333924  0.47111360
   0.66666113  0.33336388  0.47111383
   0.66669171  0.83331126  0.47111679
   0.00000054 -0.00000057  0.36052118
   0.00000031  0.50000058  0.36052121
   0.49999771 -0.00000152  0.36052139
   0.49999938  0.49999991  0.36052121
   0.33320890  0.16680121  0.58290740
   0.33355506  0.66675352  0.58290758
   0.83296411  0.16631533  0.58283352
   0.83325274  0.66679436  0.58282196
  -0.00002400 -0.00011119  0.52892202
  -0.00006249  0.50006753  0.52888737
   0.49996824  0.00001918  0.52887883
   0.50011044  0.50002412  0.52893578
   0.33333628  0.16666432  0.41714727
   0.33333182  0.66666868  0.41714497
   0.83332995  0.16666713  0.41714496
   0.83333457  0.66666358  0.41715011
   0.16284475  0.33271488  0.63576652
   0.16659820  0.83346230  0.63941912
   0.66628314  0.33348702  0.63910948
   0.66678226  0.83311696  0.63943548
   0.11380349  0.33446632  0.72455471
   0.26117916  0.33310300  0.72829180
Direct configuration=     9
   0.16665879  0.33333816  0.38825688
   0.16667674  0.83333040  0.38825142
   0.66666786  0.33332134  0.38824953
   0.66665828  0.83334187  0.38825479
  -0.00095514 -0.00142192  0.61109124
  -0.00108214  0.50009771  0.61153713
   0.49999696  0.00005794  0.61176853
   0.50168533  0.50084637  0.61129595
   0.33345677  0.16664298  0.50004518
   0.33329167  0.66673850  0.50013461
   0.83320241  0.16672410  0.50007606
   0.83335501  0.66654565  0.49984170
   0.16667874  0.33328950  0.47103527
   0.16657394  0.83333701  0.47103528
   0.66666922  0.33341515  0.47103574
   0.66673661  0.83328591  0.47104141
  -0.00000274 -0.00000602  0.36035109
  -0.00000533  0.50000131  0.36035057
   0.49999925  0.00000159  0.36035077
   0.50000519  0.50000004  0.36035108
   0.33354176  0.16663959  0.58300652
   0.33397717  0.66738708  0.58300231
   0.83202745  0.16583500  0.58287311
   0.83312554  0.66672683  0.58290296
  -0.00010930 -0.00031099  0.52892553
  -0.00021697  0.50013784  0.52891883
   0.49995385  0.00007498  0.52892772
   0.50034547  0.50008923  0.52897748
   0.33334214  0.16666242  0.41697546
   0.33333194  0.66667370  0.41697032
   0.83332275  0.16666776  0.41697210
   0.83333405  0.66665902  0.41698422
   0.16280324  0.33266088  0.63572534
   0.16653378  0.83349349  0.63959346
   0.66616464  0.33359387  0.63927324
   0.66680474  0.83296850  0.63961839
   0.11477938  0.33477996  0.72468145
   0.26106091  0.33303924  0.72910734
Direct configuration=    10
   0.16665340  0.33333705  0.38841291
   0.16668570  0.83333396  0.38839868
   0.66666621  0.33331061  0.38839349
   0.66665446  0.83335066  0.38840592
  -0.00057025 -0.00038107  0.61082539
   0.00011230  0.49989586  0.61123970
   0.49945249 -0.00082322  0.61146192
   0.50002788  0.50070038  0.61091394
   0.33357545  0.16661052  0.50016351
   0.33326533  0.66682710  0.50036632
   0.83306456  0.16676643  0.50020505
   0.83338167  0.66644129  0.49964362
   0.16668577  0.33323832  0.47088055
   0.16645553  0.83333254  0.47087865
   0.66668542  0.33351769  0.47087957
   0.66682641  0.83323520  0.47089064
  -0.00000929 -0.00001690  0.36001090
  -0.00001659  0.50000279  0.36000930
   0.50000234  0.00000782  0.36000953
   0.50001682  0.50000029  0.36001081
   0.33420748  0.16631634  0.58320478
   0.33482140  0.66865422  0.58319177
   0.83015414  0.16487434  0.58295227
   0.83287113  0.66659176  0.58306496
  -0.00027990 -0.00071059  0.52893254
  -0.00052592  0.50027848  0.52898174
   0.49992508  0.00018659  0.52902550
   0.50081553  0.50021945  0.52906089
   0.33335385  0.16665860  0.41663184
   0.33333219  0.66668374  0.41662103
   0.83330833  0.16666904  0.41662638
   0.83333302  0.66664990  0.41665243
   0.16272021  0.33255288  0.63564298
   0.16640493  0.83355587  0.63994214
   0.66592765  0.33380755  0.63960078
   0.66684970  0.83267158  0.63998422
   0.11673116  0.33540722  0.72493494
   0.26082442  0.33291171  0.73073842
Direct configuration=    11
   0.16665689  0.33333777  0.38831186
   0.16667990  0.83333166  0.38830331
   0.66666728  0.33331756  0.38830026
   0.66665693  0.83334497  0.38830805
  -0.00081951 -0.00105513  0.61099756
  -0.00066123  0.50002658  0.61143232
   0.49980509 -0.00025258  0.61166048
   0.50110126  0.50079493  0.61116133
   0.33349859  0.16663154  0.50008688
   0.33328238  0.66676972  0.50021626
   0.83315383  0.16673902  0.50012152
   0.83336441  0.66650887  0.49977190
   0.16668122  0.33327147  0.47098075
   0.16653222  0.83333544  0.47098008
   0.66667493  0.33345128  0.47098071
   0.66676826  0.83326804  0.47098828
  -0.00000505 -0.00000985  0.36023121
  -0.00000930  0.50000183  0.36023031
   0.50000034  0.00000378  0.36023052
   0.50000929  0.50000012  0.36023117
   0.33377636  0.16652568  0.58307639
   0.33427467  0.66783361  0.58306907
   0.83136731  0.16549647  0.58290100
   0.83303589  0.66667923  0.58296005
  -0.00016942 -0.00045181  0.52892800
  -0.00032584  0.50018740  0.52894100
   0.49994371  0.00011431  0.52896217
   0.50051111  0.50013512  0.52900687
   0.33334626  0.16666107  0.41685437
   0.33333203  0.66667724  0.41684723
   0.83331767  0.16666821  0.41685027
   0.83333369  0.66665580  0.41686730
   0.16277398  0.33262282  0.63569631
   0.16648837  0.83351547  0.63971633
   0.66608113  0.33366917  0.63938867
   0.66682059  0.83286387  0.63974731
   0.11546717  0.33500100  0.72477078
   0.26097757  0.33299430  0.72968212
Direct configuration=    12
   0.16665730  0.33333919  0.38831641
   0.16668806  0.83333447  0.38830531
   0.66666370  0.33331000  0.38830129
   0.66665162  0.83334802  0.38831106
  -0.00080388 -0.00098555  0.61097649
  -0.00058169  0.50001547  0.61140895
   0.49974990 -0.00032751  0.61164298
   0.50096391  0.50078441  0.61112842
   0.33350885  0.16662519  0.50009361
   0.33328395  0.66678385  0.50023035
   0.83313441  0.16673637  0.50012809
   0.83336762  0.66650266  0.49974710
   0.16668399  0.33326944  0.47097915
   0.16652385  0.83333453  0.47097547
   0.66667492  0.33345942  0.47097548
   0.66677274  0.83326198  0.47098465
  -0.00000641 -0.00001264  0.36019130
  -0.00001176  0.50000258  0.36019015
   0.50000076  0.00000489  0.36019012
   0.50001230  0.50000055  0.36019119
   0.33385109  0.16647758  0.58309653
   0.33437541  0.66799355  0.58308853
   0.83113042  0.16537295  0.58290692
   0.83301030  0.66666760  0.58297657
  -0.00018380 -0.00048890  0.52891624
  -0.00034991  0.50020230  0.52893767
   0.49993023  0.00011936  0.52895791
   0.50055285  0.50014845  0.52900337
   0.33334868  0.16666006  0.41681474
   0.33333198  0.66667943  0.41680804
   0.83331466  0.16666855  0.41681047
   0.83333376  0.66665391  0.41682684
   0.16279961  0.33261557  0.63570438
   0.16646780  0.83351643  0.63975486
   0.66605567  0.33370037  0.63942522
   0.66682386  0.83282382  0.63978894
   0.11535442  0.33509605  0.72479699
   0.26130884  0.33297161  0.72990820
Direct configuration=    13
   0.16665776  0.33334079  0.38832154
   0.16669729  0.83333766  0.38830756
   0.66665965  0.33330147  0.38830245
   0.66664562  0.83335147  0.38831446
  -0.00078621 -0.00090688  0.61095268
  -0.00049177  0.50000290  0.61138254
   0.49968748 -0.00041225  0.61162319
   0.50080860  0.50077251  0.61109121
   0.33352045  0.16661802  0.50010123
   0.33328572  0.66679982  0.50024628
   0.83311244  0.16673338  0.50013553
   0.83337126  0.66649563  0.49971906
   0.16668712  0.33326715  0.47097733
   0.16651439  0.83333351  0.47097025
   0.66667491  0.33346861  0.47096957
   0.66677780  0.83325513  0.47098055
  -0.00000795 -0.00001580  0.36014618
  -0.00001456  0.50000342  0.36014474
   0.50000124  0.00000613  0.36014444
   0.50001570  0.50000104  0.36014598
   0.33393559  0.16642319  0.58311930
   0.33448931  0.66817439  0.58311054
   0.83086256  0.16523329  0.58291361
   0.83298136  0.66665444  0.58299526
  -0.00020006 -0.00053083  0.52890295
  -0.00037712  0.50021914  0.52893390
   0.49991498  0.00012506  0.52895309
   0.50060005  0.50016352  0.52899940
   0.33335142  0.16665891  0.41676994
   0.33333193  0.66668191  0.41676373
   0.83331127  0.16666894  0.41676546
   0.83333384  0.66665177  0.41678109
   0.16282860  0.33260736  0.63571351
   0.16644454  0.83351751  0.63979842
   0.66602688  0.33373566  0.63946655
   0.66682757  0.83277854  0.63983602
   0.11522694  0.33520352  0.72482663
   0.26168341  0.33294596  0.73016384
Direct configuration=    14
   0.16665798  0.33334155  0.38832398
   0.16670167  0.83333917  0.38830864
   0.66665773  0.33329742  0.38830300
   0.66664277  0.83335311  0.38831608
  -0.00077783 -0.00086956  0.61094138
  -0.00044911  0.49999694  0.61137000
   0.49965788 -0.00045244  0.61161380
   0.50073493  0.50076687  0.61107356
   0.33352595  0.16661462  0.50010484
   0.33328656  0.66680739  0.50025384
   0.83310202  0.16673196  0.50013906
   0.83337298  0.66649230  0.49970576
   0.16668861  0.33326606  0.47097647
   0.16650990  0.83333302  0.47096777
   0.66667491  0.33347298  0.47096676
   0.66678020  0.83325188  0.47097861
  -0.00000869 -0.00001730  0.36012478
  -0.00001588  0.50000382  0.36012320
   0.50000146  0.00000672  0.36012277
   0.50001731  0.50000127  0.36012454
   0.33397567  0.16639739  0.58313011
   0.33454333  0.66826017  0.58312097
   0.83073551  0.16516704  0.58291678
   0.83296764  0.66664820  0.58300412
  -0.00020777 -0.00055072  0.52889665
  -0.00039003  0.50022713  0.52893212
   0.49990774  0.00012776  0.52895080
   0.50062244  0.50017067  0.52899752
   0.33335272  0.16665836  0.41674868
   0.33333191  0.66668309  0.41674271
   0.83330966  0.16666913  0.41674411
   0.83333388  0.66665076  0.41675939
   0.16284234  0.33260347  0.63571783
   0.16643350  0.83351803  0.63981908
   0.66601322  0.33375240  0.63948616
   0.66682932  0.83275706  0.63985836
   0.11516647  0.33525450  0.72484068
   0.26186107  0.33293379  0.73028509
Direct configuration=    15
   0.16665974  0.33334442  0.38830317
   0.16671581  0.83334417  0.38828416
   0.66665076  0.33328469  0.38827720
   0.66663306  0.83335739  0.38829287
  -0.00081963 -0.00092496  0.61094836
  -0.00051095  0.50001204  0.61137835
   0.49964607 -0.00044053  0.61163662
   0.50076634  0.50077416  0.61107884
   0.33352598  0.16660790  0.50009645
   0.33329432  0.66682012  0.50023981
   0.83308654  0.16671917  0.50012841
   0.83337407  0.66649755  0.49969113
   0.16669306  0.33327181  0.47099778
   0.16651478  0.83333179  0.47098316
   0.66667165  0.33347053  0.47098092
   0.66677208  0.83324868  0.47099490
  -0.00001048 -0.00002101  0.36010415
  -0.00001889  0.50000505  0.36010223
   0.50000166  0.00000773  0.36010128
   0.50002115  0.50000217  0.36010377
   0.33400488  0.16635954  0.58313400
   0.33459237  0.66835229  0.58312519
   0.83059719  0.16509224  0.58291384
   0.83296185  0.66664892  0.58300703
  -0.00020565 -0.00055243  0.52887406
  -0.00038233  0.50023139  0.52891649
   0.49988462  0.00011739  0.52892653
   0.50062028  0.50017345  0.52897765
   0.33335570  0.16665683  0.41673122
   0.33333188  0.66668613  0.41672715
   0.83330556  0.16666934  0.41672662
   0.83333398  0.66664848  0.41673813
   0.16289634  0.33260719  0.63574493
   0.16641378  0.83350729  0.63983529
   0.66600528  0.33377758  0.63950136
   0.66682825  0.83272951  0.63987788
   0.11529193  0.33532914  0.72487246
   0.26188694  0.33291883  0.73043663
Direct configuration=    16
   0.16666503  0.33335303  0.38824074
   0.16675825  0.83335920  0.38821074
   0.66662988  0.33324652  0.38819979
   0.66660394  0.83337024  0.38822323
  -0.00094504 -0.00109115  0.61096930
  -0.00069646  0.50005736  0.61140339
   0.49961062 -0.00040481  0.61170509
   0.50086055  0.50079604  0.61109467
   0.33352609  0.16658776  0.50007130
   0.33331761  0.66685832  0.50019771
   0.83304011  0.16668079  0.50009648
   0.83337731  0.66651331  0.49964723
   0.16670641  0.33328905  0.47106169
   0.16652941  0.83332811  0.47102930
   0.66666188  0.33346318  0.47102339
   0.66674770  0.83323908  0.47104379
  -0.00001586 -0.00003215  0.36004226
  -0.00002790  0.50000873  0.36003931
   0.50000224  0.00001074  0.36003679
   0.50003266  0.50000489  0.36004147
   0.33409252  0.16624599  0.58314570
   0.33473949  0.66862866  0.58313783
   0.83018223  0.16486783  0.58290501
   0.83294447  0.66665106  0.58301576
  -0.00019929 -0.00055755  0.52880628
  -0.00035921  0.50024418  0.52886962
   0.49981525  0.00008627  0.52885369
   0.50061383  0.50018180  0.52891802
   0.33336465  0.16665222  0.41667883
   0.33333182  0.66669526  0.41668048
   0.83329325  0.16667000  0.41667417
   0.83333430  0.66664164  0.41667437
   0.16305831  0.33261834  0.63582620
   0.16635461  0.83347509  0.63988393
   0.66598146  0.33385312  0.63954695
   0.66682503  0.83264685  0.63993645
   0.11566834  0.33555306  0.72496780
   0.26196453  0.33287396  0.73089125
Direct configuration=    17
   0.16667560  0.33337024  0.38811589
   0.16684312  0.83338924  0.38806390
   0.66658810  0.33317018  0.38804497
   0.66654571  0.83339593  0.38808397
  -0.00119585 -0.00142353  0.61101119
  -0.00106748  0.50014800  0.61145348
   0.49953974 -0.00033337  0.61184202
   0.50104897  0.50083981  0.61112633
   0.33352630  0.16654747  0.50002100
   0.33336418  0.66693472  0.50011350
   0.83294724  0.16660402  0.50003262
   0.83338381  0.66654482  0.49955943
   0.16673312  0.33332352  0.47118951
   0.16655866  0.83332073  0.47112160
   0.66664234  0.33344849  0.47110833
   0.66669895  0.83321987  0.47114156
  -0.00002662 -0.00005442  0.35991847
  -0.00004594  0.50001609  0.35991347
   0.50000341  0.00001678  0.35990783
   0.50005569  0.50001032  0.35991687
   0.33426779  0.16601887  0.58316908
   0.33503373  0.66918140  0.58316310
   0.82935231  0.16441900  0.58288735
   0.83290972  0.66665534  0.58303322
  -0.00018656 -0.00056780  0.52867072
  -0.00031299  0.50026976  0.52877587
   0.49967651  0.00002403  0.52870803
   0.50060091  0.50019849  0.52879877
   0.33338253  0.16664301  0.41657404
   0.33333169  0.66671352  0.41658713
   0.83326864  0.16667132  0.41656925
   0.83333492  0.66662797  0.41654683
   0.16338225  0.33264064  0.63598876
   0.16623628  0.83341068  0.63998122
   0.66593382  0.33400422  0.63963814
   0.66681858  0.83248152  0.64005359
   0.11642114  0.33600089  0.72515847
   0.26211971  0.33278421  0.73180049
Direct configuration=    18
   0.16669674  0.33340467  0.38786617
   0.16701287  0.83344933  0.38777022
   0.66650455  0.33301749  0.38773534
   0.66642923  0.83344731  0.38780545
  -0.00169749 -0.00208831  0.61109496
  -0.00180953  0.50032928  0.61155365
   0.49939797 -0.00019048  0.61211588
   0.50142582  0.50092733  0.61118965
   0.33352672  0.16646690  0.49992041
   0.33345734  0.66708753  0.49994510
   0.83276151  0.16645049  0.49990489
   0.83339679  0.66660786  0.49938383
   0.16678654  0.33339247  0.47144515
   0.16661717  0.83330598  0.47130619
   0.66660326  0.33341910  0.47127820
   0.66660144  0.83318146  0.47133710
  -0.00004815 -0.00009897  0.35967091
  -0.00008202  0.50003081  0.35966179
   0.50000573  0.00002884  0.35964990
   0.50010174  0.50002119  0.35966767
   0.33461833  0.16556464  0.58321586
   0.33562221  0.67028689  0.58321366
   0.82769247  0.16352136  0.58285203
   0.83284022  0.66666391  0.58306814
  -0.00016111 -0.00058830  0.52839961
  -0.00022054  0.50032091  0.52858837
   0.49939903 -0.00010045  0.52841670
   0.50057507  0.50023186  0.52856027
   0.33341830  0.16662460  0.41636447
   0.33333143  0.66675005  0.41640042
   0.83321941  0.16667396  0.41635942
   0.83333617  0.66660062  0.41629177
   0.16403015  0.33268525  0.63631388
   0.16599961  0.83328186  0.64017579
   0.66583853  0.33430640  0.63982051
   0.66680570  0.83215087  0.64028788
   0.11792674  0.33689656  0.72553981
   0.26243006  0.33260472  0.73361896
Direct configuration=    19
   0.16673902  0.33347352  0.38736675
   0.16735236  0.83356951  0.38718287
   0.66633744  0.33271211  0.38711608
   0.66619628  0.83355008  0.38724840
  -0.00270076 -0.00341785  0.61126250
  -0.00329362  0.50069184  0.61175399
   0.49911443  0.00009529  0.61266361
   0.50217951  0.50110239  0.61131628
   0.33352757  0.16630576  0.49971921
   0.33364364  0.66739313  0.49960830
   0.83239005  0.16614343  0.49964944
   0.83342277  0.66673392  0.49903262
   0.16689336  0.33353037  0.47195644
   0.16673418  0.83327648  0.47167537
   0.66652510  0.33336033  0.47161796
   0.66640642  0.83310464  0.47172819
  -0.00009121 -0.00018807  0.35917577
  -0.00015417  0.50006025  0.35915843
   0.50001039  0.00005297  0.35913403
   0.50019384  0.50004293  0.35916927
   0.33531940  0.16465619  0.58330940
   0.33679917  0.67249785  0.58331477
   0.82437278  0.16172606  0.58278140
   0.83270121  0.66668104  0.58313798
  -0.00011021 -0.00062929  0.52785738
  -0.00003563  0.50042322  0.52821337
   0.49884407 -0.00034940  0.52783403
   0.50052340  0.50029861  0.52808327
   0.33348985  0.16658776  0.41594534
   0.33333092  0.66682309  0.41602702
   0.83312096  0.16667922  0.41593976
   0.83333866  0.66654592  0.41578164
   0.16532593  0.33277448  0.63696411
   0.16552627  0.83302422  0.64056492
   0.66564797  0.33491077  0.64018527
   0.66677992  0.83148957  0.64075645
   0.12093796  0.33868790  0.72630249
   0.26305077  0.33224574  0.73725590
Direct configuration=    20
   0.16670896  0.33342457  0.38772182
   0.16711099  0.83348407  0.38760046
   0.66645625  0.33292922  0.38755635
   0.66636190  0.83347702  0.38764444
  -0.00198747 -0.00247259  0.61114338
  -0.00223848  0.50043407  0.61161156
   0.49931602 -0.00010788  0.61227419
   0.50164366  0.50097793  0.61122625
   0.33352697  0.16642033  0.49986225
   0.33351119  0.66717586  0.49984775
   0.83265415  0.16636174  0.49983106
   0.83340430  0.66664429  0.49928232
   0.16681741  0.33343233  0.47159293
   0.16665099  0.83329745  0.47141290
   0.66658067  0.33340212  0.47137641
   0.66654507  0.83315926  0.47145014
  -0.00006060 -0.00012472  0.35952779
  -0.00010287  0.50003932  0.35951630
   0.50000708  0.00003582  0.35950079
   0.50012836  0.50002747  0.35952361
   0.33482096  0.16530207  0.58324289
   0.33596239  0.67092593  0.58324288
   0.82673296  0.16300245  0.58283162
   0.83280004  0.66666886  0.58308832
  -0.00014640 -0.00060015  0.52824289
  -0.00016709  0.50035048  0.52847998
   0.49923862 -0.00017240  0.52824829
   0.50056014  0.50025115  0.52842240
   0.33343898  0.16661395  0.41624333
   0.33333128  0.66677116  0.41629249
   0.83319096  0.16667548  0.41623813
   0.83333689  0.66658481  0.41614432
   0.16440467  0.33271104  0.63650182
   0.16586280  0.83320739  0.64028826
   0.66578345  0.33448109  0.63992594
   0.66679825  0.83195973  0.64042331
   0.11879709  0.33741432  0.72576025
   0.26260947  0.33250096  0.73467016
Direct configuration=    21
   0.16670893  0.33341189  0.38766583
   0.16709805  0.83349021  0.38752842
   0.66645237  0.33293702  0.38748232
   0.66637473  0.83347363  0.38757293
  -0.00210309 -0.00259764  0.61117521
  -0.00238663  0.50044948  0.61164510
   0.49925120 -0.00009497  0.61233918
   0.50168656  0.50098598  0.61125845