CeO2                                    
           1
     7.707464    0.000000    0.000000
    -3.853732    6.674860    0.000000
     0.000000    0.000000   28.319031
   Ce   O    C    O 
  12  24   1   1
Direct configuration=     1
   0.16666700  0.33333300  0.38888900
   0.16666700  0.83333300  0.38888900
   0.66666700  0.33333300  0.38888900
   0.66666700  0.83333300  0.38888900
   0.00000000  0.00000000  0.61111100
   0.00000000  0.50000000  0.61111100
   0.50000000  0.00000000  0.61111100
   0.50000000  0.50000000  0.61111100
   0.33333300  0.16666700  0.50000000
   0.33333300  0.66666700  0.50000000
   0.83333300  0.16666700  0.50000000
   0.83333300  0.66666700  0.50000000
   0.16666700  0.33333300  0.47222200
   0.16666700  0.83333300  0.47222200
   0.66666700  0.33333300  0.47222200
   0.66666700  0.83333300  0.47222200
   0.00000000  0.00000000  0.36111100
   0.00000000  0.50000000  0.36111100
   0.50000000  0.00000000  0.36111100
   0.50000000  0.50000000  0.36111100
   0.33333300  0.16666700  0.58333300
   0.33333300  0.66666700  0.58333300
   0.83333300  0.16666700  0.58333300
   0.83333300  0.66666700  0.58333300
   0.00000000  0.00000000  0.52777800
   0.00000000  0.50000000  0.52777800
   0.50000000  0.00000000  0.52777800
   0.50000000  0.50000000  0.52777800
   0.33333300  0.16666700  0.41666700
   0.33333300  0.66666700  0.41666700
   0.83333300  0.16666700  0.41666700
   0.83333300  0.66666700  0.41666700
   0.16666700  0.33333300  0.63888900
   0.16666700  0.83333300  0.63888900
   0.66666700  0.33333300  0.63888900
   0.66666700  0.83333300  0.63888900
   0.05555600  0.00000000  0.76422100
   0.05555600  0.00000000  0.72389500
Direct configuration=     2
   0.16666850  0.33333238  0.38860902
   0.16666573  0.83333440  0.38860873
   0.66666556  0.33333487  0.38860881
   0.66666762  0.83333195  0.38860888
   0.00015240  0.00000520  0.61157459
   0.00019302  0.50014340  0.61133096
   0.49984139 -0.00015961  0.61132634
   0.49990824  0.50002265  0.61132565
   0.33330361  0.16665222  0.50000010
   0.33332921  0.66666466  0.49999870
   0.83335102  0.16665639  0.50000145
   0.83334997  0.66669495  0.50000030
   0.16667198  0.33334354  0.47179415
   0.16667096  0.83332795  0.47179315
   0.66666653  0.33333468  0.47179591
   0.66665707  0.83332775  0.47179440
   0.00000204 -0.00000082  0.36090670
   0.00000270  0.50000342  0.36090653
   0.49999605 -0.00000262  0.36090649
   0.49999849  0.50000015  0.36090656
   0.33340135  0.16671613  0.58312049
   0.33337081  0.66665923  0.58311544
   0.83329262  0.16668661  0.58312199
   0.83327335  0.66660019  0.58312096
  -0.00000604  0.00000183  0.52817920
  -0.00000668  0.49999287  0.52820641
   0.50000660  0.00000609  0.52820795
   0.50000135  0.49999817  0.52820883
   0.33333172  0.16666587  0.41688418
   0.33333173  0.66666642  0.41688464
   0.83333389  0.16666704  0.41688467
   0.83333446  0.66666757  0.41688443
   0.16685934  0.33380083  0.63905538
   0.16702997  0.83284336  0.63894560
   0.66664413  0.33332996  0.63915691
   0.66639871  0.83320297  0.63910490
   0.05566674 -0.00003007  0.76461160
   0.05508584  0.00017744  0.72362500
Direct configuration=     3
   0.16666824  0.33333249  0.38865790
   0.16666595  0.83333416  0.38865766
   0.66666581  0.33333454  0.38865772
   0.66666751  0.83333213  0.38865779
   0.00012579  0.00000429  0.61149365
   0.00015932  0.50011836  0.61129256
   0.49986908 -0.00013174  0.61128874
   0.49992426  0.50001869  0.61128818
   0.33330874  0.16665480  0.50000008
   0.33332987  0.66666507  0.49999893
   0.83334787  0.16665825  0.50000120
   0.83334701  0.66669007  0.50000024
   0.16667111  0.33334170  0.47186885
   0.16667027  0.83332883  0.47186802
   0.66666661  0.33333439  0.47187030
   0.66665881  0.83332866  0.47186906
   0.00000169 -0.00000068  0.36094237
   0.00000223  0.50000282  0.36094223
   0.49999674 -0.00000216  0.36094220
   0.49999875  0.50000012  0.36094225
   0.33338941  0.16670755  0.58315760
   0.33336421  0.66666058  0.58315342
   0.83329967  0.16668318  0.58315883
   0.83328377  0.66661185  0.58315798
  -0.00000499  0.00000151  0.52810916
  -0.00000552  0.49999411  0.52813162
   0.50000545  0.00000503  0.52813289
   0.50000111  0.49999849  0.52813361
   0.33333194  0.16666606  0.41684626
   0.33333195  0.66666652  0.41684664
   0.83333373  0.16666703  0.41684667
   0.83333421  0.66666747  0.41684647
   0.16682576  0.33371915  0.63902633
   0.16696660  0.83292885  0.63893572
   0.66664812  0.33333049  0.63911013
   0.66644555  0.83322567  0.63906721
   0.05564740 -0.00002482  0.76454341
   0.05516793  0.00014646  0.72367214
Direct configuration=     4
   0.16666834  0.33333234  0.38860321
   0.16666569  0.83333437  0.38860291
   0.66666562  0.33333483  0.38860311
   0.66666766  0.83333207  0.38860309
   0.00015313  0.00000540  0.61158485
   0.00019232  0.50014189  0.61133500
   0.49984397 -0.00015917  0.61133046
   0.49990972  0.50002339  0.61133016
   0.33330077  0.16665077  0.50000011
   0.33332923  0.66666467  0.49999834
   0.83335240  0.16665495  0.50000195
   0.83335141  0.66669781  0.50000059
   0.16667262  0.33334446  0.47178241
   0.16667148  0.83332764  0.47178142
   0.66666630  0.33333467  0.47178425
   0.66665604  0.83332716  0.47178266
   0.00000199 -0.00000082  0.36089787
   0.00000264  0.50000339  0.36089771
   0.49999608 -0.00000259  0.36089768
   0.49999850  0.50000016  0.36089774
   0.33339881  0.16671531  0.58311968
   0.33337360  0.66665872  0.58311271
   0.83329367  0.16668464  0.58312108
   0.83327362  0.66660280  0.58312006
  -0.00000552  0.00000186  0.52819120
  -0.00000584  0.49999357  0.52821773
   0.50000574  0.00000546  0.52821933
   0.50000089  0.49999808  0.52822022
   0.33333171  0.16666589  0.41688541
   0.33333175  0.66666641  0.41688589
   0.83333387  0.16666702  0.41688586
   0.83333441  0.66666757  0.41688563
   0.16686487  0.33381286  0.63906287
   0.16704063  0.83282956  0.63894972
   0.66664251  0.33332984  0.63916724
   0.66639328  0.83319999  0.63911394
   0.05566958 -0.00003072  0.76451489
   0.05506853  0.00018376  0.72372701
Direct configuration=     5
   0.16666865  0.33333189  0.38843915
   0.16666489  0.83333503  0.38843864
   0.66666507  0.33333567  0.38843925
   0.66666808  0.83333188  0.38843902
   0.00023515  0.00000874  0.61185846
   0.00029131  0.50021247  0.61146233
   0.49976863 -0.00024147  0.61145560
   0.49986612  0.50003747  0.61145612
   0.33327684  0.16663867  0.50000021
   0.33332730  0.66666348  0.49999659
   0.83336598  0.16664507  0.50000420
   0.83336459  0.66672101  0.50000162
   0.16667716  0.33335276  0.47152309
   0.16667509  0.83332406  0.47152162
   0.66666534  0.33333552  0.47152611
   0.66664776  0.83332265  0.47152345
   0.00000289 -0.00000125  0.36076437
   0.00000388  0.50000508  0.36076415
   0.49999409 -0.00000387  0.36076411
   0.49999773  0.50000027  0.36076419
   0.33342700  0.16673860  0.58300595
   0.33340178  0.66665313  0.58299059
   0.83327564  0.16668902  0.58300783
   0.83324318  0.66657564  0.58300630
  -0.00000713  0.00000288  0.52843732
  -0.00000681  0.49999195  0.52847607
   0.50000660  0.00000676  0.52847866
   0.50000022  0.49999684  0.52848003
   0.33333102  0.16666538  0.41700287
   0.33333112  0.66666607  0.41700362
   0.83333427  0.16666699  0.41700343
   0.83333501  0.66666786  0.41700313
   0.16698220  0.33409398  0.63917250
   0.16726271  0.83253170  0.63899171
   0.66662569  0.33332786  0.63933856
   0.66623648  0.83312294  0.63925414
   0.05573612 -0.00004840  0.76442935
   0.05477032  0.00029566  0.72389163
Direct configuration=     6
   0.16666926  0.33333100  0.38811101
   0.16666330  0.83333633  0.38811012
   0.66666395  0.33333737  0.38811154
   0.66666894  0.83333151  0.38811086
   0.00039920  0.00001540  0.61240568
   0.00048930  0.50035364  0.61171698
   0.49961796 -0.00040605  0.61170590
   0.49977890  0.50006563  0.61170803
   0.33322899  0.16661448  0.50000040
   0.33332344  0.66666111  0.49999309
   0.83339315  0.16662530  0.50000872
   0.83339096  0.66676743  0.50000368
   0.16668625  0.33336936  0.47100447
   0.16668233  0.83331691  0.47100203
   0.66666344  0.33333722  0.47100983
   0.66663120  0.83331364  0.47100505
   0.00000470 -0.00000212  0.36049739
   0.00000635  0.50000846  0.36049704
   0.49999012 -0.00000643  0.36049698
   0.49999619  0.50000050  0.36049711
   0.33348338  0.16678516  0.58277848
   0.33345812  0.66664196  0.58274634
   0.83323960  0.16669778  0.58278132
   0.83318230  0.66652131  0.58277879
  -0.00001034  0.00000494  0.52892957
  -0.00000876  0.49998870  0.52899275
   0.50000833  0.00000937  0.52899731
   0.49999888  0.49999436  0.52899967
   0.33332963  0.16666436  0.41723778
   0.33332988  0.66666539  0.41723910
   0.83333508  0.16666693  0.41723857
   0.83333622  0.66666844  0.41723813
   0.16721685  0.33465621  0.63939176
   0.16770689  0.83193597  0.63907568
   0.66659203  0.33332391  0.63968120
   0.66592288  0.83296883  0.63953454
   0.05586920 -0.00008375  0.76425827
   0.05417392  0.00051946  0.72422087
Direct configuration=     7
   0.16666884  0.33333162  0.38833723
   0.16666440  0.83333543  0.38833660
   0.66666472  0.33333620  0.38833746
   0.66666835  0.83333176  0.38833709
   0.00028611  0.00001081  0.61202843
   0.00035281  0.50025632  0.61154142
   0.49972183 -0.00029259  0.61153334
   0.49983903  0.50004622  0.61153436
   0.33326198  0.16663116  0.50000027
   0.33332610  0.66666274  0.49999550
   0.83337442  0.16663893  0.50000561
   0.83337278  0.66673543  0.50000226
   0.16667999  0.33335792  0.47136201
   0.16667734  0.83332184  0.47136024
   0.66666475  0.33333605  0.47136575
   0.66664262  0.83331985  0.47136244
   0.00000345 -0.00000152  0.36068145
   0.00000465  0.50000613  0.36068119
   0.49999286 -0.00000467  0.36068114
   0.49999725  0.50000034  0.36068124
   0.33344451  0.16675306  0.58293530
   0.33341928  0.66664966  0.58291473
   0.83326445  0.16669174  0.58293747
   0.83322427  0.66655876  0.58293564
  -0.00000812  0.00000352  0.52859022
  -0.00000742  0.49999094  0.52863655
   0.50000714  0.00000757  0.52863975
   0.49999980  0.49999607  0.52864143
   0.33333059  0.16666506  0.41707583
   0.33333074  0.66666586  0.41707676
   0.83333452  0.16666697  0.41707647
   0.83333539  0.66666804  0.41707612
   0.16705508  0.33426861  0.63924060
   0.16740068  0.83234666  0.63901779
   0.66661523  0.33332663  0.63944498
   0.66613908  0.83307507  0.63934123
   0.05577746 -0.00005938  0.76437621
   0.05458508  0.00036517  0.72399389
Direct configuration=     8
   0.16666885  0.33333160  0.38833039
   0.16666437  0.83333546  0.38832975
   0.66666469  0.33333624  0.38833063
   0.66666837  0.83333176  0.38833025
   0.00028953  0.00001095  0.61203984
   0.00035694  0.50025927  0.61154673
   0.49971869 -0.00029602  0.61153856
   0.49983721  0.50004680  0.61153961
   0.33326098  0.16663065  0.50000027
   0.33332602  0.66666269  0.49999543
   0.83337499  0.16663851  0.50000570
   0.83337333  0.66673640  0.50000230
   0.16668018  0.33335826  0.47135119
   0.16667749  0.83332169  0.47134940
   0.66666471  0.33333608  0.47135499
   0.66664227  0.83331966  0.47135163
   0.00000349 -0.00000154  0.36067588
   0.00000470  0.50000620  0.36067562
   0.49999278 -0.00000472  0.36067557
   0.49999722  0.50000035  0.36067567
   0.33344569  0.16675403  0.58293056
   0.33342045  0.66664943  0.58290963
   0.83326370  0.16669192  0.58293275
   0.83322300  0.66655763  0.58293089
  -0.00000819  0.00000357  0.52860048
  -0.00000746  0.49999087  0.52864733
   0.50000717  0.00000763  0.52865057
   0.49999978  0.49999602  0.52865227
   0.33333056  0.16666504  0.41708073
   0.33333071  0.66666584  0.41708167
   0.83333454  0.16666697  0.41708137
   0.83333541  0.66666805  0.41708102
   0.16705997  0.33428033  0.63924518
   0.16740994  0.83233424  0.63901954
   0.66661453  0.33332655  0.63945213
   0.66613254  0.83307186  0.63934708
   0.05578023 -0.00006012  0.76437265
   0.05457264  0.00036984  0.72400076
Direct configuration=     9
   0.16666884  0.33333160  0.38833328
   0.16666438  0.83333545  0.38833265
   0.66666470  0.33333622  0.38833352
   0.66666836  0.83333176  0.38833314
   0.00028808  0.00001089  0.61203502
   0.00035519  0.50025802  0.61154449
   0.49972002 -0.00029457  0.61153636
   0.49983798  0.50004656  0.61153739
   0.33326140  0.16663087  0.50000027
   0.33332606  0.66666272  0.49999546
   0.83337475  0.16663869  0.50000566
   0.83337310  0.66673599  0.50000228
   0.16668010  0.33335812  0.47135576
   0.16667743  0.83332175  0.47135398
   0.66666473  0.33333607  0.47135954
   0.66664242  0.83331974  0.47135619
   0.00000348 -0.00000153  0.36067823
   0.00000468  0.50000617  0.36067797
   0.49999281 -0.00000470  0.36067792
   0.49999723  0.50000035  0.36067802
   0.33344519  0.16675362  0.58293256
   0.33341996  0.66664953  0.58291178
   0.83326402  0.16669185  0.58293474
   0.83322354  0.66655811  0.58293290
  -0.00000816  0.00000355  0.52859615
  -0.00000744  0.49999090  0.52864277
   0.50000716  0.00000760  0.52864600
   0.49999979  0.49999604  0.52864769
   0.33333057  0.16666505  0.41707866
   0.33333072  0.66666585  0.41707960
   0.83333453  0.16666697  0.41707930
   0.83333540  0.66666804  0.41707895
   0.16705790  0.33427538  0.63924325
   0.16740603  0.83233949  0.63901880
   0.66661483  0.33332659  0.63944911
   0.66613530  0.83307321  0.63934461
   0.05577906 -0.00005980  0.76437415
   0.05457789  0.00036787  0.72399786
Direct configuration=    10
   0.16666829  0.33333147  0.38833316
   0.16666430  0.83333527  0.38833246
   0.66666504  0.33333604  0.38833395
   0.66666852  0.83333219  0.38833312
   0.00027745  0.00001162  0.61203492
   0.00033281  0.50023617  0.61154149
   0.49974807 -0.00027635  0.61153417
   0.49985398  0.50004704  0.61153707
   0.33325208  0.16662631  0.49999977
   0.33332659  0.66666268  0.49999337
   0.83337923  0.16663370  0.50000715
   0.83337745  0.66674540  0.50000290
   0.16668218  0.33336086  0.47134040
   0.16667908  0.83332087  0.47133871
   0.66666395  0.33333598  0.47134450
   0.66663932  0.83331787  0.47134081
   0.00000341 -0.00000153  0.36065626
   0.00000464  0.50000612  0.36065602
   0.49999282 -0.00000472  0.36065599
   0.49999719  0.50000035  0.36065608
   0.33342629  0.16674504  0.58294751
   0.33342980  0.66664756  0.58291795
   0.83327310  0.16668047  0.58294892
   0.83323063  0.66657716  0.58294729
  -0.00000547  0.00000363  0.52861560
  -0.00000397  0.49999388  0.52865626
   0.50000354  0.00000524  0.52865961
   0.49999806  0.49999528  0.52866123
   0.33333014  0.16666493  0.41706590
   0.33333073  0.66666577  0.41706680
   0.83333476  0.16666676  0.41706639
   0.83333549  0.66666843  0.41706610
   0.16706424  0.33428475  0.63926408
   0.16742040  0.83232222  0.63903380
   0.66660941  0.33332609  0.63947360
   0.66613895  0.83307338  0.63936827
   0.05579043 -0.00006253  0.76437979
   0.05452909  0.00038458  0.72400462
Direct configuration=    11
   0.16666662  0.33333105  0.38833282
   0.16666405  0.83333473  0.38833189
   0.66666605  0.33333549  0.38833524
   0.66666900  0.83333348  0.38833308
   0.00024556  0.00001383  0.61203465
   0.00026565  0.50017063  0.61153247
   0.49983223 -0.00022169  0.61152761
   0.49990197  0.50004851  0.61153609
   0.33322411  0.16661265  0.49999829
   0.33332819  0.66666258  0.49998708
   0.83339267  0.16661872  0.50001163
   0.83339052  0.66677365  0.50000474
   0.16668845  0.33336909  0.47129431
   0.16668403  0.83331822  0.47129290
   0.66666162  0.33333571  0.47129940
   0.66663003  0.83331224  0.47129464
   0.00000320 -0.00000150  0.36059036
   0.00000454  0.50000595  0.36059018
   0.49999285 -0.00000478  0.36059018
   0.49999706  0.50000038  0.36059024
   0.33336959  0.16671930  0.58299237
   0.33345932  0.66664164  0.58293645
   0.83330036  0.16664636  0.58299143
   0.83325191  0.66663432  0.58299047
   0.00000262  0.00000387  0.52867396
   0.00000644  0.50000284  0.52869670
   0.49999268 -0.00000185  0.52870044
   0.49999288  0.49999301  0.52870186
   0.33332887  0.16666457  0.41702762
   0.33333076  0.66666552  0.41702839
   0.83333543  0.16666614  0.41702767
   0.83333578  0.66666960  0.41702754
   0.16708324  0.33431286  0.63932657
   0.16746352  0.83227043  0.63907881
   0.66659315  0.33332459  0.63954706
   0.66614990  0.83307387  0.63943924
   0.05582452 -0.00007071  0.76439670
   0.05438266  0.00043471  0.72402489
Direct configuration=    12
   0.16666327  0.33333022  0.38833213
   0.16666355  0.83333366  0.38833075
   0.66666806  0.33333438  0.38833783
   0.66666996  0.83333605  0.38833300
   0.00018177  0.00001824  0.61203409
   0.00013134  0.50003954  0.61151444
   0.50000054 -0.00011237  0.61151449
   0.49999795  0.50005143  0.61153412
   0.33316816  0.16658532  0.49999533
   0.33333140  0.66666239  0.49997450
   0.83341954  0.16658877  0.50002059
   0.83341664  0.66683013  0.50000844
   0.16670099  0.33338556  0.47120214
   0.16669393  0.83331291  0.47120129
   0.66665695  0.33333517  0.47120920
   0.66661144  0.83330099  0.47120231
   0.00000278 -0.00000146  0.36045856
   0.00000435  0.50000561  0.36045849
   0.49999290 -0.00000490  0.36045856
   0.49999680  0.50000044  0.36045856
   0.33325619  0.16666782  0.58308208
   0.33351837  0.66662980  0.58297346
   0.83335488  0.16657813  0.58307647
   0.83329448  0.66674865  0.58307684
   0.00001879  0.00000434  0.52879068
   0.00002725  0.50002075  0.52877759
   0.49997096 -0.00001603  0.52878212
   0.49998252  0.49998847  0.52878311
   0.33332632  0.16666386  0.41695105
   0.33333081  0.66666503  0.41695159
   0.83333678  0.16666488  0.41695023
   0.83333635  0.66667192  0.41695043
   0.16712125  0.33436907  0.63945157
   0.16754977  0.83216685  0.63916883
   0.66656063  0.33332159  0.63969399
   0.66617181  0.83307485  0.63958120
   0.05589270 -0.00008706  0.76443051
   0.05408981  0.00053497  0.72406544
Direct configuration=    13
   0.16665659  0.33332856  0.38833076
   0.16666255  0.83333152  0.38832847
   0.66667210  0.33333218  0.38834302
   0.66667188  0.83334120  0.38833282
   0.00005419  0.00002707  0.61203298
  -0.00013729  0.49977736  0.61147839
   0.50033717  0.00010627  0.61148824
   0.50018992  0.50005728  0.61153020
   0.33305628  0.16653066  0.49998940
   0.33333782  0.66666199  0.49994934
   0.83347329  0.16652888  0.50003850
   0.83346890  0.66694311  0.50001583
   0.16672606  0.33341850  0.47101780
   0.16671374  0.83330231  0.47101807
   0.66664762  0.33333410  0.47102879
   0.66657426  0.83327849  0.47101765
   0.00000194 -0.00000137  0.36019496
   0.00000395  0.50000494  0.36019512
   0.49999301 -0.00000514  0.36019532
   0.49999628  0.50000055  0.36019521
   0.33302940  0.16656487  0.58326150
   0.33363646  0.66660614  0.58304747
   0.83346391  0.16644166  0.58324653
   0.83337961  0.66697729  0.58324956
   0.00005113  0.00000530  0.52902412
   0.00006888  0.50005656  0.52893936
   0.49992752 -0.00004440  0.52894546
   0.49996181  0.49997938  0.52894561
   0.33332122  0.16666242  0.41679792
   0.33333093  0.66666404  0.41679797
   0.83333946  0.16666237  0.41679534
   0.83333749  0.66667658  0.41679621
   0.16719727  0.33448150  0.63970156
   0.16772225  0.83195968  0.63934887
   0.66649559  0.33331559  0.63998785
   0.66621562  0.83307682  0.63986510
   0.05602907 -0.00011976  0.76449813
   0.05350410  0.00073550  0.72414655
Direct configuration=    14
   0.16665889  0.33332913  0.38833123
   0.16666289  0.83333226  0.38832925
   0.66667071  0.33333294  0.38834124
   0.66667122  0.83333943  0.38833288
   0.00009801  0.00002404  0.61203336
  -0.00004502  0.49986742  0.61149077
   0.50022154  0.00003117  0.61149726
   0.50012398  0.50005527  0.61153155
   0.33309471  0.16654944  0.49999144
   0.33333562  0.66666213  0.49995798
   0.83345483  0.16654945  0.50003235
   0.83345095  0.66690430  0.50001329
   0.16671745  0.33340719  0.47108112
   0.16670694  0.83330595  0.47108101
   0.66665083  0.33333447  0.47109076
   0.66658703  0.83328622  0.47108108
   0.00000223 -0.00000140  0.36028550
   0.00000409  0.50000517  0.36028559
   0.49999297 -0.00000505  0.36028574
   0.49999646  0.50000051  0.36028567
   0.33310730  0.16660023  0.58319987
   0.33359589  0.66661427  0.58302205
   0.83342646  0.16648854  0.58318812
   0.83335037  0.66689876  0.58319023
   0.00004002  0.00000497  0.52894393
   0.00005458  0.50004426  0.52888379
   0.49994244 -0.00003465  0.52888936
   0.49996892  0.49998250  0.52888979
   0.33332297  0.16666292  0.41685052
   0.33333089  0.66666438  0.41685073
   0.83333854  0.16666323  0.41684854
   0.83333710  0.66667498  0.41684918
   0.16717116  0.33444288  0.63961569
   0.16766301  0.83203084  0.63928703
   0.66651793  0.33331765  0.63988692
   0.66620057  0.83307615  0.63976759
   0.05598223 -0.00010853  0.76447490
   0.05370528  0.00066662  0.72411869
Direct configuration=    15
   0.16665573  0.33332844  0.38826393
   0.16666123  0.83333072  0.38826195
   0.66667297  0.33333307  0.38828118
   0.66667246  0.83334117  0.38826594
   0.00010092  0.00002283  0.61209485
  -0.00003495  0.49984960  0.61154887
   0.50025326  0.00002362  0.61155706
   0.50014101  0.50006266  0.61159739
   0.33308778  0.16655022  0.49999320
   0.33334472  0.66665994  0.49995655
   0.83345792  0.16654109  0.50002761
   0.83344817  0.66691266  0.50001302
   0.16670707  0.33339409  0.47108020
   0.16670032  0.83331045  0.47107971
   0.66665446  0.33333311  0.47109312
   0.66660046  0.83329570  0.47108096
   0.00000194 -0.00000116  0.36020123
   0.00000527  0.50000560  0.36020164
   0.49999210 -0.00000649  0.36020196
   0.49999525  0.50000114  0.36020197
   0.33304334  0.16657450  0.58326076
   0.33366085  0.66660192  0.58304008
   0.83345972  0.16643982  0.58324410
   0.83336763  0.66696679  0.58324798
   0.00004016  0.00000636  0.52896175
   0.00002971  0.50002986  0.52887565
   0.49995934 -0.00000594  0.52888066
   0.49998691  0.49996477  0.52887953
   0.33331457  0.16665884  0.41679807
   0.33333057  0.66666438  0.41679446
   0.83334248  0.16665936  0.41679785
   0.83334099  0.66668308  0.41679750
   0.16717617  0.33445666  0.63969587
   0.16771013  0.83196641  0.63934442
   0.66650817  0.33331339  0.63997428
   0.66624641  0.83309790  0.63986013
   0.05604535 -0.00012278  0.76454880
   0.05343145  0.00075623  0.72411174
Direct configuration=    16
   0.16664625  0.33332639  0.38806201
   0.16665624  0.83332609  0.38806006
   0.66667973  0.33333345  0.38810100
   0.66667618  0.83334640  0.38806511
   0.00010966  0.00001921  0.61227931
  -0.00000473  0.49979613  0.61172317
   0.50034841  0.00000097  0.61173646
   0.50019208  0.50008482  0.61179491
   0.33306699  0.16655258  0.49999849
   0.33337202  0.66665335  0.49995227
   0.83346719  0.16651601  0.50001339
   0.83343983  0.66693773  0.50001222
   0.16667595  0.33335480  0.47107745
   0.16668045  0.83332396  0.47107584
   0.66666537  0.33332901  0.47110018
   0.66664074  0.83332414  0.47108061
   0.00000108 -0.00000044  0.35994843
   0.00000882  0.50000688  0.35994981
   0.49998948 -0.00001080  0.35995063
   0.49999160  0.50000304  0.35995088
   0.33285146  0.16649730  0.58344344
   0.33385570  0.66656486  0.58309419
   0.83355948  0.16629369  0.58341206
   0.83341940  0.66717091  0.58342122
   0.00004056  0.00001054  0.52901520
  -0.00004490  0.49998665  0.52885122
   0.50001001  0.00008019  0.52885458
   0.50004085  0.49991160  0.52884875
   0.33328937  0.16664660  0.41664073
   0.33332961  0.66666437  0.41662565
   0.83335429  0.16664773  0.41664578
   0.83335267  0.66670739  0.41664245
   0.16719119  0.33449801  0.63993640
   0.16785149  0.83177310  0.63951660
   0.66647889  0.33330062  0.64023637
   0.66638394  0.83316317  0.64013777
   0.05623469 -0.00016553  0.76477049
   0.05260995  0.00102507  0.72409088
Direct configuration=    17
   0.16664578  0.33332626  0.38804815
   0.16665595  0.83332587  0.38804624
   0.66668003  0.33333350  0.38808861
   0.66667637  0.83334663  0.38805130
   0.00011128  0.00001887  0.61229217
  -0.00000057  0.49979437  0.61173528
   0.50035256 -0.00000220  0.61174886
   0.50019432  0.50008619  0.61180842
   0.33306633  0.16655303  0.49999891
   0.33337379  0.66665290  0.49995202
   0.83346749  0.16651477  0.50001232
   0.83343903  0.66693866  0.50001214
   0.16667365  0.33335184  0.47107794
   0.16667895  0.83332499  0.47107626
   0.66666618  0.33332874  0.47110127
   0.66664380  0.83332625  0.47108126
   0.00000098 -0.00000039  0.35993200
   0.00000898  0.50000690  0.35993347
   0.49998938 -0.00001102  0.35993433
   0.49999141  0.50000315  0.35993460
   0.33284025  0.16649291  0.58345531
   0.33386877  0.66656240  0.58309781
   0.83356544  0.16628467  0.58342295
   0.83342213  0.66718299  0.58343247
   0.00004043  0.00001082  0.52901772
  -0.00005045  0.49998338  0.52884905
   0.50001388  0.00008657  0.52885226
   0.50004489  0.49990772  0.52884607
   0.33328772  0.16664582  0.41663043
   0.33332958  0.66666437  0.41661457
   0.83335506  0.16664693  0.41663582
   0.83335340  0.66670898  0.41663230
   0.16719221  0.33450124  0.63995199
   0.16786082  0.83176029  0.63952785
   0.66647741  0.33329972  0.64025314
   0.66639243  0.83316732  0.64015579
   0.05624630 -0.00016801  0.76477330
   0.05255605  0.00104259  0.72410160
Direct configuration=    18
   0.16664437  0.33332589  0.38800658
   0.16665507  0.83332521  0.38800476
   0.66668093  0.33333362  0.38805145
   0.66667694  0.83334732  0.38800988
   0.00011613  0.00001783  0.61233075
   0.00001191  0.49978907  0.61177160
   0.50036500 -0.00001170  0.61178609
   0.50020105  0.50009029  0.61184897
   0.33306435  0.16655437  0.50000016
   0.33337911  0.66665155  0.49995128
   0.83346839  0.16651107  0.50000912
   0.83343662  0.66694143  0.50001189
   0.16666675  0.33334295  0.47107943
   0.16667444  0.83332806  0.47107753
   0.66666861  0.33332792  0.47110454
   0.66665298  0.83333257  0.47108323
   0.00000068 -0.00000024  0.35988272
   0.00000945  0.50000697  0.35988445
   0.49998908 -0.00001168  0.35988543
   0.49999081  0.50000351  0.35988575
   0.33280662  0.16647974  0.58349092
   0.33390797  0.66655500  0.58310869
   0.83358333  0.16625760  0.58345561
   0.83343034  0.66721922  0.58346623
   0.00004005  0.00001165  0.52902527
  -0.00006711  0.49997356  0.52884253
   0.50002547  0.00010569  0.52884530
   0.50005701  0.49989608  0.52883803
   0.33328278  0.16664347  0.41659952
   0.33332948  0.66666435  0.41658130
   0.83335736  0.16664456  0.41660595
   0.83335560  0.66671378  0.41660186
   0.16719527  0.33451090  0.63999878
   0.16788882  0.83172187  0.63956160
   0.66647299  0.33329702  0.64030343
   0.66641789  0.83317976  0.64020983
   0.05628113 -0.00017543  0.76478173
   0.05239433  0.00109515  0.72413377
Direct configuration=    19
   0.16664155  0.33332516  0.38792343
   0.16665332  0.83332389  0.38792182
   0.66668273  0.33333387  0.38797712
   0.66667807  0.83334871  0.38792704
   0.00012584  0.00001577  0.61240791
   0.00003687  0.49977848  0.61184423
   0.50038988 -0.00003071  0.61186053
   0.50021450  0.50009850  0.61193006
   0.33306038  0.16655706  0.50000265
   0.33338974  0.66664886  0.49994981
   0.83347019  0.16650366  0.50000272
   0.83343182  0.66694698  0.50001139
   0.16665295  0.33332518  0.47108240
   0.16666542  0.83333421  0.47108008
   0.66667347  0.33332628  0.47111106
   0.66667133  0.83334522  0.47108716
   0.00000009  0.00000005  0.35978417
   0.00001039  0.50000711  0.35978643
   0.49998848 -0.00001301  0.35978763
   0.49998961  0.50000421  0.35978806
   0.33273935  0.16645340  0.58356215
   0.33398637  0.66654020  0.58313045
   0.83361911  0.16620345  0.58352094
   0.83344674  0.66729169  0.58353374
   0.00003929  0.00001332  0.52904039
  -0.00010041  0.49995392  0.52882951
   0.50004866  0.00014392  0.52883138
   0.50008125  0.49987281  0.52882195
   0.33327290  0.16663878  0.41653771
   0.33332930  0.66666432  0.41651478
   0.83336196  0.16663982  0.41654622
   0.83336000  0.66672336  0.41654097
   0.16720139  0.33453024  0.64009236
   0.16794483  0.83164501  0.63962909
   0.66646413  0.33329163  0.64040403
   0.66646880  0.83320465  0.64031793
   0.05635079 -0.00019028  0.76479860
   0.05207091  0.00120027  0.72419811
Direct configuration=    20
   0.16663591  0.33332369  0.38775714
   0.16664983  0.83332125  0.38775592
   0.66668632  0.33333438  0.38782847
   0.66668034  0.83335148  0.38776136
   0.00014527  0.00001163  0.61256222
   0.00008679  0.49975730  0.61198950
   0.50043965 -0.00006873  0.61200942
   0.50024141  0.50011492  0.61209224
   0.33305244  0.16656243  0.50000765
   0.33341099  0.66664346  0.49994685
   0.83347378  0.16648884  0.49998993
   0.83342220  0.66695807  0.50001039
   0.16662534  0.33328964  0.47108833
   0.16664739  0.83334651  0.47108517
   0.66668319  0.33332300  0.47112412
   0.66670804  0.83337053  0.47109503
  -0.00000110  0.00000065  0.35958705
   0.00001227  0.50000738  0.35959038
   0.49998727 -0.00001566  0.35959202
   0.49998722  0.50000563  0.35959267
   0.33260482  0.16640073  0.58370459
   0.33414317  0.66651060  0.58317397
   0.83369067  0.16609516  0.58365160
   0.83347955  0.66743662  0.58366875
   0.00003778  0.00001667  0.52907061
  -0.00016703  0.49991465  0.52880345
   0.50009504  0.00022040  0.52880353
   0.50012972  0.49982626  0.52878980
   0.33325313  0.16662940  0.41641409
   0.33332893  0.66666425  0.41638173
   0.83337116  0.16663033  0.41642675
   0.83336879  0.66674254  0.41641920
   0.16721363  0.33456891  0.64027952
   0.16805684  0.83149130  0.63976409
   0.66644643  0.33328083  0.64060522
   0.66657063  0.83325443  0.64053411
   0.05649012 -0.00021998  0.76483233
   0.05142407  0.00141050  0.72432680
Direct configuration=    21
   0.16662463  0.33332074  0.38742455
   0.16664283  0.83331596  0.38742413
   0.66669352  0.33333539  0.38753116
   0.66668487  0.83335701  0.38743000
   0.00018412  0.00000336  0.61287085
   0.00018664  0.49971494  0.61228003
   0.50053918 -0.00014477  0.61230720
   0.50029523  0.50014775  0.61241660