CeO2                                    
           1
     7.707464    0.000000    0.000000
    -3.853732    6.674860    0.000000
     0.000000    0.000000   28.319031
   Ce   O    C    O 
  12  24   1   1
Direct configuration=     1
   0.16666700  0.33333300  0.38888900
   0.16666700  0.83333300  0.38888900
   0.66666700  0.33333300  0.38888900
   0.66666700  0.83333300  0.38888900
   0.00000000  0.00000000  0.61111100
   0.00000000  0.50000000  0.61111100
   0.50000000  0.00000000  0.61111100
   0.50000000  0.50000000  0.61111100
   0.33333300  0.16666700  0.50000000
   0.33333300  0.66666700  0.50000000
   0.83333300  0.16666700  0.50000000
   0.83333300  0.66666700  0.50000000
   0.16666700  0.33333300  0.47222200
   0.16666700  0.83333300  0.47222200
   0.66666700  0.33333300  0.47222200
   0.66666700  0.83333300  0.47222200
   0.00000000  0.00000000  0.36111100
   0.00000000  0.50000000  0.36111100
   0.50000000  0.00000000  0.36111100
   0.50000000  0.50000000  0.36111100
   0.33333300  0.16666700  0.58333300
   0.33333300  0.66666700  0.58333300
   0.83333300  0.16666700  0.58333300
   0.83333300  0.66666700  0.58333300
   0.00000000  0.00000000  0.52777800
   0.00000000  0.50000000  0.52777800
   0.50000000  0.00000000  0.52777800
   0.50000000  0.50000000  0.52777800
   0.33333300  0.16666700  0.41666700
   0.33333300  0.66666700  0.41666700
   0.83333300  0.16666700  0.41666700
   0.83333300  0.66666700  0.41666700
   0.16666700  0.33333300  0.63888900
   0.16666700  0.83333300  0.63888900
   0.66666700  0.33333300  0.63888900
   0.66666700  0.83333300  0.63888900
   0.00000000  0.05555600  0.72389500
   0.14816800  0.05555600  0.72389500
Direct configuration=     2
   0.16666724  0.33333012  0.38861323
   0.16666246  0.83333437  0.38861393
   0.66666628  0.33333609  0.38861349
   0.66667139  0.83333264  0.38861318
  -0.00027785 -0.00036082  0.61109883
  -0.00003293  0.50016393  0.61136822
   0.49997711 -0.00003205  0.61144780
   0.50024427  0.50015829  0.61134381
   0.33332965  0.16665660  0.50000658
   0.33332932  0.66667479  0.50000972
   0.83333256  0.16666563  0.50000890
   0.83334523  0.66667523  0.50001311
   0.16666722  0.33332581  0.47179169
   0.16667302  0.83334369  0.47179083
   0.66665844  0.33332581  0.47178907
   0.66666846  0.83333793  0.47178803
  -0.00000866 -0.00000413  0.36090132
  -0.00000909  0.49999544  0.36090071
   0.50000938  0.00000493  0.36090156
   0.50000925  0.50000458  0.36090159
   0.33332051  0.16671459  0.58311894
   0.33333597  0.66661154  0.58311897
   0.83337595  0.16668368  0.58311059
   0.83331009  0.66665654  0.58311292
   0.00000600  0.00001048  0.52819377
   0.00000623  0.49999653  0.52820137
   0.49999437  0.00000284  0.52819478
   0.49998421  0.49998541  0.52820233
   0.33333944  0.16667081  0.41688124
   0.33334186  0.66667035  0.41687899
   0.83332680  0.16666155  0.41687928
   0.83332549  0.66666448  0.41687748
   0.16680602  0.33382662  0.63903245
   0.16661431  0.83273370  0.63889345
   0.66666724  0.33345398  0.63908224
   0.66643967  0.83292358  0.63899298
  -0.00168582  0.05614047  0.72422291
   0.15007688  0.05543597  0.72427971
Direct configuration=     3
   0.16666712  0.33333164  0.38875856
   0.16666485  0.83333365  0.38875889
   0.66666666  0.33333446  0.38875868
   0.66666907  0.83333283  0.38875854
  -0.00013142 -0.00017066  0.61110524
  -0.00001558  0.50007754  0.61123266
   0.49998917 -0.00001516  0.61127031
   0.50011554  0.50007487  0.61122112
   0.33333141  0.16666208  0.50000311
   0.33333126  0.66667068  0.50000460
   0.83333279  0.16666635  0.50000421
   0.83333878  0.66667089  0.50000620
   0.16666710  0.33332960  0.47201846
   0.16666985  0.83333806  0.47201806
   0.66666295  0.33332960  0.47201723
   0.66666769  0.83333533  0.47201673
  -0.00000409 -0.00000195  0.36101182
  -0.00000430  0.49999785  0.36101153
   0.50000444  0.00000233  0.36101194
   0.50000437  0.50000216  0.36101195
   0.33332709  0.16668951  0.58323175
   0.33333441  0.66664077  0.58323176
   0.83335332  0.16667489  0.58322780
   0.83332217  0.66666205  0.58322890
   0.00000284  0.00000496  0.52797466
   0.00000295  0.49999836  0.52797825
   0.49999734  0.00000135  0.52797514
   0.49999253  0.49999310  0.52797871
   0.33333605  0.16666880  0.41676833
   0.33333719  0.66666858  0.41676727
   0.83333007  0.16666442  0.41676741
   0.83332945  0.66666581  0.41676656
   0.16673276  0.33356648  0.63895685
   0.16664208  0.83304953  0.63889110
   0.66666712  0.33339022  0.63898040
   0.66655947  0.83313935  0.63893818
  -0.00079738  0.05583245  0.72405010
   0.14907089  0.05549922  0.72407697
Direct configuration=     4
   0.16666717  0.33333131  0.38868479
   0.16666405  0.83333383  0.38868517
   0.66666657  0.33333508  0.38868485
   0.66666976  0.83333279  0.38868468
  -0.00020210 -0.00026284  0.61110026
  -0.00002028  0.50011907  0.61130195
   0.49998159 -0.00002405  0.61136023
   0.50017443  0.50011314  0.61128378
   0.33333571  0.16666159  0.50000449
   0.33333059  0.66667321  0.50000751
   0.83332963  0.16666816  0.50000611
   0.83333944  0.66666812  0.50000832
   0.16666675  0.33332720  0.47190024
   0.16667008  0.83334058  0.47189962
   0.66666130  0.33332871  0.47189840
   0.66666911  0.83333647  0.47189778
  -0.00000575 -0.00000275  0.36095071
  -0.00000622  0.49999695  0.36095031
   0.50000628  0.00000348  0.36095088
   0.50000623  0.50000298  0.36095089
   0.33332296  0.16670055  0.58317651
   0.33333966  0.66662890  0.58317567
   0.83336161  0.16667496  0.58317022
   0.83331464  0.66666068  0.58317088
   0.00000291  0.00000581  0.52808889
   0.00000326  0.49999794  0.52809445
   0.49999636  0.00000264  0.52809056
   0.49999043  0.49999005  0.52809537
   0.33333725  0.16666953  0.41682322
   0.33333879  0.66666917  0.41682162
   0.83332895  0.16666345  0.41682188
   0.83332808  0.66666533  0.41682075
   0.16676840  0.33370115  0.63899833
   0.16662808  0.83288270  0.63889328
   0.66666569  0.33342199  0.63903629
   0.66649914  0.83302765  0.63896932
  -0.00059196  0.05600228  0.72414458
   0.14892942  0.05546420  0.72418722
Direct configuration=     5
   0.16666731  0.33333033  0.38846349
   0.16666164  0.83333438  0.38846399
   0.66666632  0.33333692  0.38846336
   0.66667182  0.83333267  0.38846309
  -0.00041415 -0.00053936  0.61108531
  -0.00003439  0.50024369  0.61150982
   0.49995883 -0.00005074  0.61163001
   0.50035112  0.50022793  0.61147175
   0.33334859  0.16666012  0.50000863
   0.33332859  0.66668080  0.50001624
   0.83332012  0.16667357  0.50001180
   0.83334141  0.66665980  0.50001466
   0.16666569  0.33332000  0.47154557
   0.16667078  0.83334815  0.47154428
   0.66665634  0.33332606  0.47154192
   0.66667337  0.83333990  0.47154094
  -0.00001071 -0.00000515  0.36076738
  -0.00001199  0.49999427  0.36076665
   0.50001180  0.00000690  0.36076772
   0.50001182  0.50000541  0.36076770
   0.33331056  0.16673365  0.58301077
   0.33335541  0.66659330  0.58300738
   0.83338649  0.16667517  0.58299750
   0.83329208  0.66665658  0.58299680
   0.00000312  0.00000836  0.52843159
   0.00000419  0.49999666  0.52844306
   0.49999342  0.00000652  0.52843683
   0.49998413  0.49998090  0.52844535
   0.33334085  0.16667171  0.41698787
   0.33334359  0.66667093  0.41698466
   0.83332561  0.16666054  0.41698529
   0.83332396  0.66666389  0.41698334
   0.16687534  0.33410516  0.63912278
   0.16658608  0.83238220  0.63889979
   0.66666143  0.33351729  0.63920397
   0.66631812  0.83269257  0.63906273
   0.00002430  0.05651176  0.72442802
   0.14850500  0.05535913  0.72451797
Direct configuration=     6
   0.16666761  0.33332836  0.38802087
   0.16665681  0.83333548  0.38802164
   0.66666581  0.33334061  0.38802037
   0.66667595  0.83333242  0.38801993
  -0.00083824 -0.00109241  0.61105542
  -0.00006260  0.50049291  0.61192555
   0.49991330 -0.00010411  0.61216958
   0.50070450  0.50045753  0.61184770
   0.33337436  0.16665719  0.50001691
   0.33332458  0.66669599  0.50003370
   0.83330112  0.16668440  0.50002318
   0.83334535  0.66664316  0.50002734
   0.16666356  0.33330559  0.47083624
   0.16667219  0.83336330  0.47083360
   0.66664642  0.33332075  0.47082895
   0.66668189  0.83334675  0.47082724
  -0.00002064 -0.00000994  0.36040071
  -0.00002352  0.49998891  0.36039931
   0.50002283  0.00001375  0.36040140
   0.50002298  0.50001028  0.36040132
   0.33328578  0.16679987  0.58267930
   0.33338691  0.66652209  0.58267080
   0.83343626  0.16667559  0.58265204
   0.83324694  0.66664838  0.58264865
   0.00000353  0.00001347  0.52911699
   0.00000605  0.49999411  0.52914027
   0.49998755  0.00001429  0.52912937
   0.49997153  0.49996262  0.52914531
   0.33334806  0.16667606  0.41731718
   0.33335319  0.66667445  0.41731076
   0.83331891  0.16665472  0.41731212
   0.83331572  0.66666102  0.41730851
   0.16708921  0.33491319  0.63937166
   0.16650208  0.83138119  0.63891282
   0.66665290  0.33370790  0.63953934
   0.66595609  0.83202241  0.63924954
   0.00125683  0.05753073  0.72499490
   0.14765618  0.05514899  0.72517949
Direct configuration=     7
   0.16666742  0.33332963  0.38830628
   0.16665992  0.83333477  0.38830688
   0.66666614  0.33333823  0.38830602
   0.66667329  0.83333258  0.38830569
  -0.00056477 -0.00073579  0.61107470
  -0.00004441  0.50033220  0.61165747
   0.49994266 -0.00006969  0.61182165
   0.50047663  0.50030948  0.61160528
   0.33335775  0.16665908  0.50001157
   0.33332717  0.66668620  0.50002244
   0.83331337  0.16667741  0.50001584
   0.83334281  0.66665389  0.50001916
   0.16666493  0.33331488  0.47129364
   0.16667128  0.83335353  0.47129186
   0.66665282  0.33332417  0.47128869
   0.66667640  0.83334233  0.47128745
  -0.00001424 -0.00000685  0.36063715
  -0.00001608  0.49999237  0.36063618
   0.50001572  0.00000933  0.36063761
   0.50001578  0.50000714  0.36063757
   0.33330176  0.16675717  0.58289304
   0.33336660  0.66656801  0.58288784
   0.83340417  0.16667532  0.58287480
   0.83327604  0.66665367  0.58287315
   0.00000327  0.00001018  0.52867502
   0.00000485  0.49999575  0.52869069
   0.49999134  0.00000928  0.52868280
   0.49997966  0.49997441  0.52869395
   0.33334341  0.16667325  0.41710483
   0.33334700  0.66667218  0.41710048
   0.83332323  0.16665847  0.41710137
   0.83332103  0.66666287  0.41709883
   0.16695130  0.33439215  0.63921117
   0.16655624  0.83202667  0.63890442
   0.66665840  0.33358499  0.63932309
   0.66618954  0.83245455  0.63912908
   0.00046206  0.05687367  0.72462936
   0.14820353  0.05528450  0.72475292
Direct configuration=     8
   0.16666778  0.33333167  0.38831022
   0.16666185  0.83333404  0.38831008
   0.66666639  0.33333729  0.38830928
   0.66667107  0.83333270  0.38830911
  -0.00054944 -0.00068683  0.61106244
   0.00000231  0.50030238  0.61165704
   0.49993648 -0.00008661  0.61181376
   0.50040661  0.50028330  0.61160503
   0.33339856  0.16667613  0.50000797
   0.33333042  0.66669120  0.50002649
   0.83328879  0.16669446  0.50001121
   0.83332293  0.66661441  0.50000690
   0.16666102  0.33330719  0.47127299
   0.16666344  0.83335549  0.47127129
   0.66665504  0.33332832  0.47126756
   0.66668585  0.83334417  0.47126755
  -0.00001274 -0.00000623  0.36059890
  -0.00001535  0.49999298  0.36059795
   0.50001456  0.00000938  0.36059930
   0.50001486  0.50000618  0.36059917
   0.33328969  0.16673614  0.58291628
   0.33339575  0.66659150  0.58290299
   0.83338191  0.16664353  0.58289644
   0.83327293  0.66666503  0.58288697
  -0.00000427 -0.00000198  0.52868845
  -0.00000455  0.49999890  0.52870738
   0.49999357  0.00001481  0.52870628
   0.49999300  0.49997678  0.52871021
   0.33334246  0.16667246  0.41707746
   0.33334540  0.66667183  0.41707269
   0.83332432  0.16665963  0.41707428
   0.83332266  0.66666327  0.41707247
   0.16695297  0.33441671  0.63923540
   0.16655417  0.83198884  0.63891920
   0.66664708  0.33357990  0.63935982
   0.66618491  0.83243221  0.63915322
   0.00053809  0.05697971  0.72468584
   0.14816747  0.05526108  0.72482038
Direct configuration=     9
   0.16666886  0.33333777  0.38832203
   0.16666763  0.83333185  0.38831970
   0.66666715  0.33333447  0.38831906
   0.66666440  0.83333306  0.38831937
  -0.00050344 -0.00053996  0.61102569
   0.00014247  0.50021291  0.61165575
   0.49991793 -0.00013735  0.61179008
   0.50019654  0.50020476  0.61160429
   0.33352100  0.16672728  0.49999715
   0.33334019  0.66670620  0.50003865
   0.83321504  0.16674561  0.49999731
   0.83326331  0.66649598  0.49997010
   0.16664930  0.33328413  0.47121104
   0.16663993  0.83336138  0.47120957
   0.66666170  0.33334077  0.47120414
   0.66671421  0.83334969  0.47120783
  -0.00000822 -0.00000438  0.36048413
  -0.00001314  0.49999481  0.36048327
   0.50001109  0.00000952  0.36048435
   0.50001211  0.50000328  0.36048397
   0.33325350  0.16667306  0.58298600
   0.33348319  0.66666198  0.58294846
   0.83331514  0.16654817  0.58296137
   0.83326360  0.66669912  0.58292844
  -0.00002689 -0.00003846  0.52872872
  -0.00003276  0.50000833  0.52875744
   0.50000027  0.00003141  0.52877673
   0.50003302  0.49998391  0.52875898
   0.33333960  0.16667009  0.41699536
   0.33334060  0.66667077  0.41698931
   0.83332758  0.16666311  0.41699300
   0.83332756  0.66666446  0.41699340
   0.16695797  0.33449038  0.63930807
   0.16654796  0.83187537  0.63896352
   0.66661310  0.33356462  0.63947003
   0.66617102  0.83236520  0.63922564
   0.00076618  0.05729785  0.72485530
   0.14805931  0.05519084  0.72502274
Direct configuration=    10
   0.16667102  0.33334998  0.38834566
   0.16667919  0.83332746  0.38833892
   0.66666866  0.33332883  0.38833862
   0.66665107  0.83333377  0.38833988
  -0.00041146 -0.00024622  0.61095219
   0.00042278  0.50003397  0.61165317
   0.49988083 -0.00023883  0.61174272
   0.49977640  0.50004770  0.61160281
   0.33376588  0.16682958  0.49997552
   0.33335972  0.66673620  0.50006296
   0.83306754  0.16684790  0.49996952
   0.83314405  0.66625911  0.49989649
   0.16662585  0.33323801  0.47108713
   0.16659289  0.83337316  0.47108614
   0.66667503  0.33336566  0.47107731
   0.66677094  0.83336072  0.47108840
   0.00000081 -0.00000067  0.36025461
  -0.00000873  0.49999847  0.36025390
   0.50000415  0.00000980  0.36025445
   0.50000660  0.49999750  0.36025357
   0.33318110  0.16654690  0.58312545
   0.33365808  0.66680294  0.58303938
   0.83318159  0.16635746  0.58309122
   0.83324494  0.66676728  0.58301136
  -0.00007213 -0.00011142  0.52880926
  -0.00008916  0.50002719  0.52885757
   0.50001366  0.00006461  0.52891762
   0.50011307  0.49999816  0.52885653
   0.33333389  0.16666535  0.41683116
   0.33333099  0.66666864  0.41682255
   0.83333411  0.16667007  0.41683046
   0.83333735  0.66666684  0.41683525
   0.16696798  0.33463773  0.63945343
   0.16653555  0.83164842  0.63905218
   0.66654516  0.33353407  0.63969045
   0.66614324  0.83223117  0.63937048
   0.00122237  0.05793412  0.72519422
   0.14784297  0.05505035  0.72542747
Direct configuration=    11
   0.16667277  0.33335323  0.38832788
   0.16668341  0.83332730  0.38831980
   0.66666739  0.33332645  0.38831542
   0.66664654  0.83333335  0.38832097
  -0.00041681 -0.00023636  0.61095624
   0.00044027  0.50001446  0.61166939
   0.49987856 -0.00024943  0.61175449
   0.49974691  0.50003271  0.61162035
   0.33378188  0.16683821  0.49997086
   0.33336144  0.66673595  0.50006304
   0.83305821  0.16685599  0.49996311
   0.83313405  0.66624058  0.49988874
   0.16662268  0.33323252  0.47107948
   0.16659276  0.83337701  0.47107742
   0.66667425  0.33336296  0.47106701
   0.66677455  0.83336486  0.47108031
   0.00000185 -0.00000068  0.36020855
  -0.00000998  0.49999844  0.36020773
   0.50000392  0.00001145  0.36020808
   0.50000711  0.49999608  0.36020728
   0.33316135  0.16652334  0.58315298
   0.33369329  0.66682377  0.58305492
   0.83315812  0.16632062  0.58311664
   0.83323786  0.66677567  0.58302666
  -0.00007554 -0.00011372  0.52880512
  -0.00009748  0.50002140  0.52886021
   0.50001788  0.00007640  0.52892701
   0.50011740  0.49998999  0.52885744
   0.33333851  0.16666664  0.41679738
   0.33332978  0.66666915  0.41678885
   0.83333169  0.16667334  0.41679692
   0.83333642  0.66666208  0.41680078
   0.16696844  0.33466514  0.63948307
   0.16653703  0.83160409  0.63907019
   0.66652848  0.33351998  0.63973375
   0.66613613  0.83220722  0.63939999
   0.00110140  0.05810046  0.72528096
   0.14802549  0.05501134  0.72553100
Direct configuration=    12
   0.16667381  0.33335515  0.38831734
   0.16668592  0.83332721  0.38830848
   0.66666663  0.33332504  0.38830167
   0.66664386  0.83333310  0.38830977
  -0.00041998 -0.00023051  0.61095864
   0.00045063  0.50000291  0.61167899
   0.49987721 -0.00025571  0.61176145
   0.49972944  0.50002383  0.61163075
   0.33379135  0.16684332  0.49996811
   0.33336246  0.66673579  0.50006308
   0.83305268  0.16686079  0.49995931
   0.83312813  0.66622961  0.49988414
   0.16662080  0.33322927  0.47107495
   0.16659268  0.83337928  0.47107226
   0.66667379  0.33336136  0.47106091
   0.66677669  0.83336731  0.47107552
   0.00000247 -0.00000068  0.36018126
  -0.00001072  0.49999842  0.36018038
   0.50000379  0.00001243  0.36018061
   0.50000741  0.49999524  0.36017986
   0.33314965  0.16650938  0.58316928
   0.33371414  0.66683612  0.58306412
   0.83314422  0.16629880  0.58313170
   0.83323367  0.66678064  0.58303572
  -0.00007756 -0.00011509  0.52880267
  -0.00010241  0.50001797  0.52886177
   0.50002038  0.00008338  0.52893257
   0.50011997  0.49998515  0.52885797
   0.33334125  0.16666741  0.41677738
   0.33332906  0.66666946  0.41676889
   0.83333025  0.16667528  0.41677705
   0.83333586  0.66665927  0.41678037
   0.16696871  0.33468137  0.63950063
   0.16653791  0.83157783  0.63908086
   0.66651859  0.33351163  0.63975940
   0.66613191  0.83219303  0.63941747
   0.00102974  0.05819899  0.72533234
   0.14813361  0.05498823  0.72559234
Direct configuration=    13
   0.16667588  0.33335900  0.38829627
   0.16669093  0.83332702  0.38828582
   0.66666513  0.33332223  0.38827418
   0.66663850  0.83333260  0.38828738
  -0.00042633 -0.00021883  0.61096345
   0.00047136  0.49997980  0.61169821
   0.49987453 -0.00026828  0.61177539
   0.49969450  0.50000607  0.61165154
   0.33381030  0.16685355  0.49996259
   0.33336450  0.66673549  0.50006317
   0.83304163  0.16687038  0.49995171
   0.83311628  0.66620765  0.49987495
   0.16661704  0.33322277  0.47106588
   0.16659252  0.83338383  0.47106193
   0.66667287  0.33335816  0.47104872
   0.66678096  0.83337221  0.47106594
   0.00000370 -0.00000068  0.36012669
  -0.00001220  0.49999839  0.36012567
   0.50000353  0.00001438  0.36012567
   0.50000802  0.49999355  0.36012501
   0.33312625  0.16648147  0.58320190
   0.33375585  0.66686080  0.58308253
   0.83311642  0.16625516  0.58316182
   0.83322528  0.66679058  0.58305384
  -0.00008161 -0.00011782  0.52879776
  -0.00011226  0.50001111  0.52886489
   0.50002538  0.00009734  0.52894369
   0.50012511  0.49997548  0.52885905
   0.33334672  0.16666895  0.41673736
   0.33332761  0.66667006  0.41672896
   0.83332738  0.16667915  0.41673731
   0.83333475  0.66665363  0.41673954
   0.16696925  0.33471384  0.63953575
   0.16653967  0.83152531  0.63910221
   0.66649882  0.33349494  0.63981069
   0.66612349  0.83216465  0.63945242
   0.00088642  0.05839605  0.72543510
   0.14834985  0.05494200  0.72571500
Direct configuration=    14
   0.16667728  0.33336108  0.38827711
   0.16669390  0.83332719  0.38826572
   0.66666394  0.33332055  0.38825023
   0.66663540  0.83333222  0.38826740
  -0.00043645 -0.00022828  0.61097218
   0.00047018  0.49997275  0.61171401
   0.49987409 -0.00027186  0.61178999
   0.49969298  0.50000103  0.61166856
   0.33381071  0.16685538  0.49995948
   0.33336505  0.66673372  0.50006172
   0.83304153  0.16687181  0.49994730
   0.83311411  0.66620450  0.49987193
   0.16661559  0.33322070  0.47106597
   0.16659548  0.83338663  0.47106103
   0.66667131  0.33335402  0.47104649
   0.66678054  0.83337535  0.47106535
   0.00000410 -0.00000083  0.36009683
  -0.00001355  0.49999814  0.36009565
   0.50000376  0.00001585  0.36009547
   0.50000875  0.49999265  0.36009494
   0.33311190  0.16646760  0.58321905
   0.33377793  0.66687078  0.58309135
   0.83310319  0.16623269  0.58317758
   0.83321948  0.66679387  0.58306302
  -0.00008192 -0.00011517  0.52878929
  -0.00011661  0.50000416  0.52886161
   0.50002859  0.00010671  0.52894405
   0.50012395  0.49996642  0.52885425
   0.33335145  0.16667054  0.41671584
   0.33332713  0.66667069  0.41670768
   0.83332467  0.16668177  0.41671590
   0.83333319  0.66664903  0.41671699
   0.16696845  0.33473064  0.63955515
   0.16654130  0.83149629  0.63911384
   0.66648756  0.33348398  0.63983820
   0.66611917  0.83215026  0.63947185
   0.00093036  0.05851408  0.72549755
   0.14834948  0.05491508  0.72578943
Direct configuration=    15
   0.16668146  0.33336732  0.38821963
   0.16670281  0.83332770  0.38820542
   0.66666038  0.33331551  0.38817838
   0.66662613  0.83333107  0.38820747
  -0.00046681 -0.00025664  0.61099839
   0.00046665  0.49995163  0.61176142
   0.49987277 -0.00028262  0.61183380
   0.49968842  0.49998588  0.61171961
   0.33381193  0.16686090  0.49995016
   0.33336668  0.66672842  0.50005736
   0.83304124  0.16687608  0.49993409
   0.83310762  0.66619503  0.49986287
   0.16661123  0.33321450  0.47106623
   0.16660438  0.83339500  0.47105832
   0.66666664  0.33334159  0.47103981
   0.66677929  0.83338479  0.47106357
   0.00000531 -0.00000127  0.36000727
  -0.00001758  0.49999740  0.36000556
   0.50000445  0.00002027  0.36000489
   0.50001097  0.49998994  0.36000472
   0.33306888  0.16642599  0.58327051
   0.33384417  0.66690072  0.58311780
   0.83306351  0.16616528  0.58322486
   0.83320210  0.66680373  0.58309057
  -0.00008286 -0.00010721  0.52876385
  -0.00012965  0.49998329  0.52885176
   0.50003820  0.00013482  0.52894513
   0.50012048  0.49993926  0.52883986
   0.33336563  0.16667530  0.41665127
   0.33332569  0.66667257  0.41664383
   0.83331655  0.16668964  0.41665164
   0.83332850  0.66663521  0.41664935
   0.16696605  0.33478104  0.63961338
   0.16654618  0.83140921  0.63914874
   0.66645378  0.33345111  0.63992074
   0.66610623  0.83210708  0.63953015
   0.00106221  0.05886816  0.72568489
   0.14834836  0.05483429  0.72601270
Direct configuration=    16
   0.16668984  0.33337980  0.38810467
   0.16672062  0.83332872  0.38808481
   0.66665325  0.33330544  0.38803466
   0.66660757  0.83332877  0.38808760
  -0.00052754 -0.00031336  0.61105081
   0.00045959  0.49990937  0.61185624
   0.49987015 -0.00030412  0.61192141
   0.49967930  0.49995560  0.61182172
   0.33381437  0.16687194  0.49993152
   0.33336996  0.66671781  0.50004866
   0.83304065  0.16688462  0.49990765
   0.83309465  0.66617609  0.49984475
   0.16660252  0.33320210  0.47106675
   0.16662218  0.83341176  0.47105290
   0.66665730  0.33331673  0.47102646
   0.66677677  0.83340367  0.47106001
   0.00000773 -0.00000216  0.35982814
  -0.00002564  0.49999591  0.35982540
   0.50000584  0.00002910  0.35982372
   0.50001541  0.49998453  0.35982429
   0.33298282  0.16634276  0.58337343
   0.33397665  0.66696061  0.58317071
   0.83298414  0.16603045  0.58331941
   0.83316733  0.66682346  0.58314566
  -0.00008475 -0.00009131  0.52871299
  -0.00015573  0.49994155  0.52883206
   0.50005742  0.00019105  0.52894729
   0.50011355  0.49988494  0.52881108
   0.33339399  0.16668482  0.41652212
   0.33332280  0.66667634  0.41651614
   0.83330032  0.16670539  0.41652314
   0.83331914  0.66660759  0.41651406
   0.16696124  0.33488185  0.63972982
   0.16655596  0.83123507  0.63921855
   0.66638621  0.33338535  0.64008583
   0.66608036  0.83202073  0.63964674
   0.00132590  0.05957632  0.72605958
   0.14834614  0.05467271  0.72645925
Direct configuration=    17
   0.16670658  0.33340475  0.38787475
   0.16675624  0.83333077  0.38784358
   0.66663899  0.33328530  0.38774724
   0.66657046  0.83332418  0.38784786
  -0.00064900 -0.00042679  0.61115564
   0.00044547  0.49982486  0.61204588
   0.49986489 -0.00034713  0.61209664
   0.49966105  0.49989503  0.61202594
   0.33381926  0.16689401  0.49989425
   0.33337650  0.66669659  0.50003124
   0.83303948  0.16690171  0.49985479
   0.83306869  0.66613822  0.49980851
   0.16658509  0.33317730  0.47106779
   0.16665778  0.83344526  0.47104205
   0.66663861  0.33326700  0.47099974
   0.66677174  0.83344142  0.47105288
   0.00001256 -0.00000392  0.35946989
  -0.00004176  0.49999295  0.35946507
   0.50000863  0.00004677  0.35946138
   0.50002428  0.49997370  0.35946341
   0.33281071  0.16617630  0.58357925
   0.33424162  0.66708038  0.58327653
   0.83282541  0.16576079  0.58350852
   0.83309779  0.66686292  0.58325585
  -0.00008852 -0.00005949  0.52861126
  -0.00020789  0.49985807  0.52879266
   0.50009588  0.00030351  0.52895161
   0.50009968  0.49977629  0.52875351
   0.33345070  0.16670386  0.41626384
   0.33331703  0.66668388  0.41626075
   0.83326785  0.16673687  0.41626612
   0.83330040  0.66655233  0.41624349
   0.16695164  0.33508345  0.63996271
   0.16657552  0.83088679  0.63935816
   0.66625107  0.33325383  0.64041599
   0.66602861  0.83184802  0.63987991
   0.00185328  0.06099265  0.72680896
   0.14834168  0.05434955  0.72735234
Direct configuration=    18
   0.16670932  0.33340670  0.38779707
   0.16675997  0.83333218  0.38776365
   0.66663624  0.33328344  0.38765431
   0.66656677  0.83332297  0.38776805
  -0.00069361 -0.00049282  0.61119557
   0.00041521  0.49981716  0.61210235
   0.49986328 -0.00035511  0.61215510
   0.49969549  0.49989059  0.61208682
   0.33380219  0.16688924  0.49988395
   0.33337950  0.66669201  0.50002326
   0.83304624  0.16689560  0.49984051
   0.83307032  0.66614533  0.49980121
   0.16658339  0.33317785  0.47107202
   0.16667427  0.83345130  0.47104381
   0.66663244  0.33324976  0.47099630
   0.66676068  0.83344940  0.47105489
   0.00001302 -0.00000346  0.35937874
  -0.00004424  0.49999156  0.35937213
   0.50000980  0.00004963  0.35936763
   0.50002517  0.49997200  0.35937048
   0.33276219  0.16614318  0.58362775
   0.33430003  0.66709099  0.58329958
   0.83279814  0.16570284  0.58355276
   0.83307608  0.66686247  0.58328205
  -0.00008503 -0.00004170  0.52857890
  -0.00021876  0.49982760  0.52877700
   0.50010597  0.00033710  0.52894198
   0.50008562  0.49973609  0.52873175
   0.33346636  0.16671040  0.41620037
   0.33331683  0.66668517  0.41619862
   0.83325898  0.16674437  0.41620261
   0.83329347  0.66653718  0.41617628
   0.16694412  0.33512807  0.64002381
   0.16657292  0.83079586  0.63939681
   0.66622193  0.33322322  0.64049766
   0.66602105  0.83180545  0.63994273
   0.00255159  0.06137577  0.72702599
   0.14779106  0.05428261  0.72760550
Direct configuration=    19
   0.16671141  0.33340818  0.38773809
   0.16676281  0.83333325  0.38770294
   0.66663416  0.33328203  0.38758374
   0.66656397  0.83332205  0.38770743
  -0.00072750 -0.00054297  0.61122589
   0.00039223  0.49981132  0.61214524
   0.49986205 -0.00036116  0.61219950
   0.49972164  0.49988722  0.61213306
   0.33378922  0.16688562  0.49987612
   0.33338177  0.66668853  0.50001720
   0.83305138  0.16689095  0.49982966
   0.83307155  0.66615073  0.49979566
   0.16658209  0.33317827  0.47107524
   0.16668680  0.83345589  0.47104514
   0.66662775  0.33323667  0.47099368
   0.66675227  0.83345547  0.47105641
   0.00001337 -0.00000310  0.35930952
  -0.00004611  0.49999050  0.35930155
   0.50001070  0.00005180  0.35929643
   0.50002584  0.49997070  0.35929990
   0.33272534  0.16611802  0.58366458
   0.33434440  0.66709904  0.58331708
   0.83277743  0.16565882  0.58358636
   0.83305959  0.66686213  0.58330194
  -0.00008238 -0.00002819  0.52855433
  -0.00022701  0.49980445  0.52876511
   0.50011364  0.00036260  0.52893467
   0.50007494  0.49970556  0.52871522
   0.33347826  0.16671537  0.41615218
   0.33331668  0.66668615  0.41615144
   0.83325225  0.16675007  0.41615437
   0.83328820  0.66652568  0.41612524
   0.16693841  0.33516196  0.64007021
   0.16657094  0.83072679  0.63942617
   0.66619979  0.33319996  0.64055968
   0.66601531  0.83177311  0.63999043
   0.00308193  0.06166673  0.72719082
   0.14737290  0.05423178  0.72779776
Direct configuration=    20
   0.16671162  0.33340833  0.38773217
   0.16676309  0.83333336  0.38769685
   0.66663395  0.33328188  0.38757666
   0.66656369  0.83332196  0.38770135
  -0.00073090 -0.00054801  0.61122893
   0.00038992  0.49981073  0.61214954
   0.49986193 -0.00036177  0.61220395
   0.49972427  0.49988688  0.61213770
   0.33378792  0.16688526  0.49987534
   0.33338200  0.66668818  0.50001659
   0.83305189  0.16689049  0.49982857
   0.83307167  0.66615127  0.49979511
   0.16658196  0.33317831  0.47107556
   0.16668805  0.83345635  0.47104528
   0.66662728  0.33323536  0.47099342
   0.66675143  0.83345608  0.47105656
   0.00001340 -0.00000307  0.35930258
  -0.00004630  0.49999040  0.35929447
   0.50001079  0.00005202  0.35928929
   0.50002591  0.49997057  0.35929282
   0.33272164  0.16611550  0.58366827
   0.33434885  0.66709985  0.58331884
   0.83277536  0.16565440  0.58358973
   0.83305793  0.66686210  0.58330394
  -0.00008212 -0.00002683  0.52855186
  -0.00022784  0.49980213  0.52876392
   0.50011441  0.00036516  0.52893394
   0.50007387  0.49970250  0.52871356
   0.33347945  0.16671587  0.41614734
   0.33331667  0.66668625  0.41614670
   0.83325157  0.16675064  0.41614953
   0.83328767  0.66652453  0.41612012
   0.16693784  0.33516536  0.64007487
   0.16657074  0.83071986  0.63942912
   0.66619757  0.33319763  0.64056590
   0.66601474  0.83176987  0.63999522
   0.00313515  0.06169592  0.72720735
   0.14733094  0.05422668  0.72781705
Direct configuration=    21
   0.16671054  0.33340358  0.38768106
   0.16675770  0.83333483  0.38764570
   0.66663420  0.33328533  0.38751973
   0.66656946  0.83332153  0.38764985
  -0.00076565 -0.00061041  0.61125792
   0.00035139  0.49981777  0.61217828
   0.49986265 -0.00036426  0.61223962
   0.49977505  0.49989634  0.61216901