CeO2                                    
           1
     7.707464    0.000000    0.000000
    -3.853732    6.674860    0.000000
     0.000000    0.000000   28.319031
   Ce   O    C    O 
  12  24   1   1
Direct configuration=     1
   0.16666700  0.33333300  0.38888900
   0.16666700  0.83333300  0.38888900
   0.66666700  0.33333300  0.38888900
   0.66666700  0.83333300  0.38888900
   0.00000000  0.00000000  0.61111100
   0.00000000  0.50000000  0.61111100
   0.50000000  0.00000000  0.61111100
   0.50000000  0.50000000  0.61111100
   0.33333300  0.16666700  0.50000000
   0.33333300  0.66666700  0.50000000
   0.83333300  0.16666700  0.50000000
   0.83333300  0.66666700  0.50000000
   0.16666700  0.33333300  0.47222200
   0.16666700  0.83333300  0.47222200
   0.66666700  0.33333300  0.47222200
   0.66666700  0.83333300  0.47222200
   0.00000000  0.00000000  0.36111100
   0.00000000  0.50000000  0.36111100
   0.50000000  0.00000000  0.36111100
   0.50000000  0.50000000  0.36111100
   0.33333300  0.16666700  0.58333300
   0.33333300  0.66666700  0.58333300
   0.83333300  0.16666700  0.58333300
   0.83333300  0.66666700  0.58333300
   0.00000000  0.00000000  0.52777800
   0.00000000  0.50000000  0.52777800
   0.50000000  0.00000000  0.52777800
   0.50000000  0.50000000  0.52777800
   0.33333300  0.16666700  0.41666700
   0.33333300  0.66666700  0.41666700
   0.83333300  0.16666700  0.41666700
   0.83333300  0.66666700  0.41666700
   0.16666700  0.33333300  0.63888900
   0.16666700  0.83333300  0.63888900
   0.66666700  0.33333300  0.63888900
   0.66666700  0.83333300  0.63888900
   0.44444400  0.16666700  0.72389500
   0.29627600  0.16666700  0.72389500
Direct configuration=     2
   0.16666601  0.33333637  0.38860469
   0.16666678  0.83332940  0.38860431
   0.66666949  0.33333356  0.38860380
   0.66666543  0.83333301  0.38860535
  -0.00018777  0.00009570  0.61143872
   0.00035671  0.50002239  0.61140050
   0.50022190 -0.00046714  0.61136962
   0.49983369  0.50048582  0.61125133
   0.33332051  0.16666246  0.49999116
   0.33332860  0.66666311  0.50000720
   0.83334397  0.16666692  0.50000379
   0.83334203  0.66667796  0.49999949
   0.16667484  0.33333192  0.47179576
   0.16667915  0.83334562  0.47179507
   0.66665343  0.33332397  0.47179611
   0.66666131  0.83333330  0.47179481
  -0.00000099 -0.00000119  0.36090749
   0.00000382  0.50000264  0.36090711
   0.49999854 -0.00000417  0.36090746
   0.49999973  0.50000395  0.36090720
   0.33340815  0.16668276  0.58314102
   0.33336721  0.66670143  0.58310963
   0.83324898  0.16666142  0.58311517
   0.83329544  0.66661640  0.58312462
   0.00001136  0.00000629  0.52820032
  -0.00000042  0.49999802  0.52820043
   0.49999595  0.00000607  0.52820401
   0.49999411  0.49998770  0.52821143
   0.33333134  0.16666498  0.41688695
   0.33333550  0.66666879  0.41688486
   0.83333334  0.16666367  0.41688470
   0.83333435  0.66667068  0.41688344
   0.16666218  0.33368624  0.63891933
   0.16662395  0.83305998  0.63902189
   0.66676733  0.33392152  0.63894454
   0.66661371  0.83317263  0.63904631
   0.44637847  0.16535170  0.72422188
   0.29412188  0.16733814  0.72409852
Direct configuration=     3
   0.16666666  0.33333416  0.38879151
   0.16666693  0.83333176  0.38879138
   0.66666785  0.33333319  0.38879121
   0.66666646  0.83333300  0.38879174
  -0.00006439  0.00003282  0.61122337
   0.00012231  0.50000768  0.61121027
   0.50007609 -0.00016018  0.61119968
   0.49994297  0.50016658  0.61115912
   0.33332872  0.16666544  0.49999697
   0.33333149  0.66666567  0.50000247
   0.83333676  0.16666697  0.50000130
   0.83333610  0.66667076  0.49999982
   0.16666969  0.33333263  0.47207585
   0.16667117  0.83333733  0.47207561
   0.66666235  0.33332990  0.47207597
   0.66666505  0.83333310  0.47207552
  -0.00000034 -0.00000041  0.36104122
   0.00000131  0.50000091  0.36104109
   0.49999950 -0.00000143  0.36104121
   0.49999991  0.50000136  0.36104112
   0.33335877  0.16667240  0.58326717
   0.33334473  0.66667881  0.58325641
   0.83330419  0.16666509  0.58325831
   0.83332012  0.66664965  0.58326155
   0.00000390  0.00000216  0.52792281
  -0.00000014  0.49999932  0.52792284
   0.49999861  0.00000208  0.52792407
   0.49999798  0.49999578  0.52792662
   0.33333243  0.16666631  0.41674242
   0.33333386  0.66666761  0.41674170
   0.83333312  0.16666586  0.41674165
   0.83333346  0.66666826  0.41674121
   0.16666535  0.33345412  0.63889940
   0.16665224  0.83323938  0.63893457
   0.66670140  0.33353480  0.63890804
   0.66664873  0.83327801  0.63894294
   0.44510730  0.16621600  0.72400708
   0.29553738  0.16689712  0.72396478
Direct configuration=     4
   0.16666635  0.33333501  0.38868658
   0.16666688  0.83333062  0.38868632
   0.66666880  0.33333331  0.38868608
   0.66666617  0.83333301  0.38868702
  -0.00012302  0.00006866  0.61134419
   0.00025086  0.50002086  0.61131706
   0.50015559 -0.00032728  0.61129374
   0.49988260  0.50033960  0.61120922
   0.33332336  0.16666127  0.49999494
   0.33332678  0.66666460  0.50000313
   0.83334142  0.16666879  0.50000203
   0.83334268  0.66667456  0.50000017
   0.16667280  0.33333299  0.47191186
   0.16667515  0.83334083  0.47191150
   0.66665807  0.33332734  0.47191227
   0.66666263  0.83333238  0.47191133
  -0.00000054 -0.00000078  0.36095903
   0.00000249  0.50000154  0.36095875
   0.49999911 -0.00000273  0.36095898
   0.49999981  0.50000235  0.36095885
   0.33338500  0.16667491  0.58319879
   0.33336092  0.66669619  0.58317498
   0.83327001  0.16665928  0.58318040
   0.83330851  0.66663591  0.58318582
   0.00000706  0.00000409  0.52808586
   0.00000097  0.49999896  0.52808570
   0.49999745  0.00000220  0.52808845
   0.49999570  0.49999322  0.52809282
   0.33333195  0.16666565  0.41682103
   0.33333451  0.66666789  0.41681983
   0.83333341  0.16666489  0.41681963
   0.83333397  0.66666920  0.41681890
   0.16665840  0.33359429  0.63891269
   0.16663815  0.83312995  0.63898825
   0.66673804  0.33375826  0.63893387
   0.66662770  0.83321940  0.63900736
   0.44472575  0.16569830  0.72413550
   0.29583452  0.16716449  0.72404707
Direct configuration=     5
   0.16666561  0.33333699  0.38844097
   0.16666676  0.83332794  0.38844042
   0.66667101  0.33333358  0.38844003
   0.66666549  0.83333304  0.38844193
  -0.00026024  0.00015257  0.61162696
   0.00055175  0.50005172  0.61156703
   0.50034166 -0.00071838  0.61151388
   0.49974131  0.50074454  0.61132649
   0.33331083  0.16665149  0.49999021
   0.33331574  0.66666211  0.50000466
   0.83335232  0.16667305  0.50000374
   0.83335809  0.66668346  0.50000099
   0.16668010  0.33333383  0.47152804
   0.16668446  0.83334903  0.47152739
   0.66664806  0.33332135  0.47152912
   0.66665696  0.83333068  0.47152703
  -0.00000100 -0.00000164  0.36076667
   0.00000525  0.50000303  0.36076602
   0.49999822 -0.00000577  0.36076653
   0.49999957  0.50000468  0.36076629
   0.33344639  0.16668078  0.58303875
   0.33339882  0.66673687  0.58298440
   0.83319001  0.16664568  0.58299805
   0.83328132  0.66660375  0.58300857
   0.00001447  0.00000862  0.52846748
   0.00000358  0.49999811  0.52846686
   0.49999475  0.00000246  0.52847319
   0.49999037  0.49998721  0.52848182
   0.33333081  0.16666411  0.41700503
   0.33333604  0.66666854  0.41700270
   0.83333409  0.16666264  0.41700214
   0.83333515  0.66667140  0.41700071
   0.16664214  0.33392235  0.63894381
   0.16660516  0.83287382  0.63911391
   0.66682381  0.33428127  0.63899431
   0.66657848  0.83308223  0.63915813
   0.44383270  0.16448659  0.72443606
   0.29652998  0.16779026  0.72423966
Direct configuration=     6
   0.16666525  0.33333797  0.38832007
   0.16666670  0.83332662  0.38831938
   0.66667210  0.33333371  0.38831890
   0.66666516  0.83333305  0.38832128
  -0.00032780  0.00019387  0.61176616
   0.00069986  0.50006691  0.61169008
   0.50043326 -0.00091091  0.61162225
   0.49967175  0.50094389  0.61138422
   0.33330466  0.16664668  0.49998787
   0.33331031  0.66666089  0.50000542
   0.83335769  0.16667515  0.50000458
   0.83336568  0.66668784  0.50000139
   0.16668369  0.33333425  0.47133910
   0.16668905  0.83335307  0.47133830
   0.66664313  0.33331841  0.47134051
   0.66665416  0.83332984  0.47133786
  -0.00000123 -0.00000207  0.36067198
   0.00000661  0.50000376  0.36067115
   0.49999777 -0.00000726  0.36067179
   0.49999946  0.50000583  0.36067150
   0.33347661  0.16668367  0.58295997
   0.33341748  0.66675689  0.58289058
   0.83315063  0.16663899  0.58290828
   0.83326794  0.66658792  0.58292132
   0.00001812  0.00001084  0.52865534
   0.00000486  0.49999769  0.52865449
   0.49999342  0.00000259  0.52866258
   0.49998774  0.49998426  0.52867331
   0.33333025  0.16666335  0.41709561
   0.33333679  0.66666887  0.41709272
   0.83333443  0.16666153  0.41709198
   0.83333573  0.66667248  0.41709021
   0.16663413  0.33408385  0.63895913
   0.16658892  0.83274773  0.63917577
   0.66686603  0.33453874  0.63902407
   0.66655426  0.83301470  0.63923235
   0.44339309  0.16389011  0.72458401
   0.29687233  0.16809830  0.72433447
Direct configuration=     7
   0.16666510  0.33333733  0.38832246
   0.16666648  0.83332738  0.38832211
   0.66667204  0.33333392  0.38832216
   0.66666600  0.83333352  0.38832386
  -0.00025237  0.00017283  0.61174701
   0.00057971  0.50008364  0.61168909
   0.50043514 -0.00077863  0.61161635
   0.49974390  0.50085609  0.61136520
   0.33329355  0.16662696  0.50000165
   0.33329451  0.66666723  0.49998983
   0.83336226  0.16668037  0.50000294
   0.83338892  0.66669719  0.50001004
   0.16668779  0.33334078  0.47129922
   0.16669235  0.83335053  0.47129771
   0.66664257  0.33331898  0.47130013
   0.66664801  0.83332607  0.47129899
  -0.00000038 -0.00000127  0.36061290
   0.00000662  0.50000350  0.36061199
   0.49999786 -0.00000657  0.36061271
   0.49999910  0.50000509  0.36061248
   0.33343794  0.16664403  0.58299552
   0.33346261  0.66680770  0.58291246
   0.83312893  0.16658142  0.58294474
   0.83329456  0.66666930  0.58294499
   0.00000947  0.00001859  0.52869830
   0.00002697  0.49999814  0.52868990
   0.49999725 -0.00002133  0.52870040
   0.49997532  0.50000359  0.52870202
   0.33333010  0.16666387  0.41705719
   0.33333578  0.66666795  0.41705571
   0.83333566  0.16666282  0.41705429
   0.83333628  0.66667219  0.41705241
   0.16660048  0.33413042  0.63899170
   0.16660351  0.83270956  0.63922455
   0.66688647  0.33460257  0.63905695
   0.66655772  0.83303211  0.63928969
   0.44316027  0.16353023  0.72466525
   0.29705154  0.16828589  0.72439509
Direct configuration=     8
   0.16666490  0.33333640  0.38832589
   0.16666616  0.83332848  0.38832605
   0.66667196  0.33333422  0.38832683
   0.66666721  0.83333420  0.38832756
  -0.00014405  0.00014262  0.61171952
   0.00040717  0.50010766  0.61168766
   0.50043784 -0.00058867  0.61160786
   0.49984750  0.50073001  0.61133788
   0.33327761  0.16659865  0.50002143
   0.33327182  0.66667634  0.49996745
   0.83336883  0.16668785  0.50000059
   0.83342228  0.66671062  0.50002245
   0.16669368  0.33335016  0.47124195
   0.16669709  0.83334688  0.47123943
   0.66664178  0.33331981  0.47124215
   0.66663916  0.83332065  0.47124318
   0.00000083 -0.00000013  0.36052807
   0.00000664  0.50000314  0.36052704
   0.49999798 -0.00000558  0.36052787
   0.49999860  0.50000403  0.36052774
   0.33338241  0.16658712  0.58304658
   0.33352742  0.66688065  0.58294389
   0.83309777  0.16649876  0.58299709
   0.83333278  0.66678615  0.58297899
  -0.00000295  0.00002972  0.52875999
   0.00005870  0.49999878  0.52874075
   0.50000275 -0.00005568  0.52875471
   0.49995748  0.50003136  0.52874324
   0.33332989  0.16666462  0.41700201
   0.33333432  0.66666664  0.41700256
   0.83333744  0.16666468  0.41700017
   0.83333707  0.66667178  0.41699814
   0.16655215  0.33419730  0.63903846
   0.16662446  0.83265474  0.63929458
   0.66691581  0.33469424  0.63910418
   0.66656269  0.83305711  0.63937203
   0.44282595  0.16301346  0.72478190
   0.29730887  0.16855525  0.72448214
Direct configuration=     9
   0.16666449  0.33333454  0.38833275
   0.16666553  0.83333067  0.38833391
   0.66667181  0.33333483  0.38833618
   0.66666962  0.83333557  0.38833498
   0.00007257  0.00008221  0.61166452
   0.00006209  0.50015571  0.61168482
   0.50044325 -0.00020876  0.61159089
   0.50005470  0.50047785  0.61128325
   0.33324572  0.16654201  0.50006099
   0.33322644  0.66669456  0.49992268
   0.83338195  0.16670283  0.49999588
   0.83348902  0.66673747  0.50004727
   0.16670546  0.33336891  0.47112742
   0.16670657  0.83333957  0.47112285
   0.66664019  0.33332146  0.47112618
   0.66662148  0.83330981  0.47113156
   0.00000326  0.00000215  0.36035842
   0.00000668  0.50000242  0.36035714
   0.49999822 -0.00000359  0.36035819
   0.49999759  0.50000190  0.36035826
   0.33327136  0.16647330  0.58314869
   0.33365704  0.66702656  0.58300674
   0.83303546  0.16633344  0.58310178
   0.83340922  0.66701985  0.58304697
  -0.00002779  0.00005197  0.52888337
   0.00012217  0.50000006  0.52884244
   0.50001376 -0.00012437  0.52886333
   0.49992180  0.50008689  0.52882568
   0.33332946  0.16666611  0.41689166
   0.33333142  0.66666403  0.41689626
   0.83334098  0.16666839  0.41689191
   0.83333865  0.66667095  0.41688959
   0.16645550  0.33433105  0.63913200
   0.16666636  0.83254510  0.63943466
   0.66697449  0.33487756  0.63919862
   0.66657262  0.83310711  0.63953671
   0.44215732  0.16197992  0.72501520
   0.29782352  0.16909396  0.72465623
Direct configuration=    10
   0.16666511  0.33333098  0.38831981
   0.16666407  0.83333415  0.38832054
   0.66666984  0.33333561  0.38832445
   0.66667298  0.83333581  0.38832242
   0.00010495  0.00007358  0.61166473
   0.00000895  0.50017179  0.61169324
   0.50044808 -0.00014813  0.61159861
   0.50009198  0.50044883  0.61128406
   0.33324239  0.16653142  0.50006521
   0.33321877  0.66669996  0.49991438
   0.83338215  0.16670600  0.49999429
   0.83350134  0.66674162  0.50004820
   0.16670699  0.33336794  0.47111013
   0.16670675  0.83334179  0.47110561
   0.66663842  0.33332182  0.47111002
   0.66662252  0.83330931  0.47111476
   0.00000369  0.00000282  0.36031104
   0.00000750  0.50000255  0.36030981
   0.49999819 -0.00000385  0.36031095
   0.49999706  0.50000203  0.36031101
   0.33324250  0.16643951  0.58317853
   0.33369564  0.66707361  0.58302485
   0.83301383  0.16628914  0.58313245
   0.83343503  0.66708906  0.58306590
  -0.00002737  0.00006072  0.52890221
   0.00013011  0.49999815  0.52885674
   0.50001740 -0.00013036  0.52887798
   0.49991547  0.50009178  0.52883305
   0.33332838  0.16666541  0.41685970
   0.33332998  0.66666376  0.41686310
   0.83334237  0.16666943  0.41685950
   0.83334044  0.66667171  0.41685769
   0.16642812  0.33436309  0.63915695
   0.16667601  0.83252103  0.63947534
   0.66699039  0.33493023  0.63922581
   0.66658233  0.83312342  0.63958172
   0.44221793  0.16162608  0.72509089
   0.29770972  0.16928218  0.72471431
Direct configuration=    11
   0.16666548  0.33332885  0.38831209
   0.16666321  0.83333623  0.38831256
   0.66666867  0.33333608  0.38831745
   0.66667499  0.83333596  0.38831492
   0.00012428  0.00006843  0.61166486
  -0.00002279  0.50018140  0.61169828
   0.50045097 -0.00011191  0.61160322
   0.50011425  0.50043150  0.61128454
   0.33324041  0.16652509  0.50006773
   0.33321419  0.66670319  0.49990943
   0.83338226  0.16670789  0.49999334
   0.83350870  0.66674410  0.50004875
   0.16670791  0.33336736  0.47109981
   0.16670685  0.83334312  0.47109530
   0.66663736  0.33332204  0.47110036
   0.66662315  0.83330901  0.47110472
   0.00000394  0.00000321  0.36028274
   0.00000798  0.50000263  0.36028154
   0.49999817 -0.00000400  0.36028273
   0.49999674  0.50000211  0.36028279
   0.33322526  0.16641933  0.58319636
   0.33371870  0.66710172  0.58303566
   0.83300090  0.16626268  0.58315076
   0.83345044  0.66713041  0.58307721
  -0.00002712  0.00006595  0.52891346
   0.00013484  0.49999701  0.52886529
   0.50001957 -0.00013393  0.52888673
   0.49991169  0.50009470  0.52883745
   0.33332773  0.16666498  0.41684060
   0.33332912  0.66666360  0.41684329
   0.83334320  0.16667006  0.41684015
   0.83334152  0.66667216  0.41683864
   0.16641176  0.33438222  0.63917186
   0.16668178  0.83250665  0.63949964
   0.66699989  0.33496169  0.63924206
   0.66658813  0.83313316  0.63960861
   0.44225413  0.16141472  0.72513610
   0.29764174  0.16939461  0.72474900
Direct configuration=    12
   0.16666622  0.33332460  0.38829663
   0.16666147  0.83334039  0.38829659
   0.66666633  0.33333702  0.38830343
   0.66667900  0.83333626  0.38829991
   0.00016296  0.00005814  0.61166511
  -0.00008628  0.50020061  0.61170834
   0.50045675 -0.00003948  0.61161244
   0.50015878  0.50039683  0.61128550
   0.33323643  0.16651243  0.50007277
   0.33320502  0.66670964  0.49989951
   0.83338249  0.16671168  0.49999144
   0.83352342  0.66674905  0.50004985
   0.16670974  0.33336621  0.47107916
   0.16670706  0.83334577  0.47107470
   0.66663525  0.33332247  0.47108105
   0.66662440  0.83330842  0.47108465
   0.00000445  0.00000401  0.36022613
   0.00000896  0.50000280  0.36022501
   0.49999813 -0.00000431  0.36022628
   0.49999611  0.50000226  0.36022635
   0.33319078  0.16637896  0.58323201
   0.33376482  0.66715793  0.58305730
   0.83297506  0.16620976  0.58318739
   0.83348127  0.66721309  0.58309983
  -0.00002662  0.00007641  0.52893597
   0.00014432  0.49999473  0.52888237
   0.50002392 -0.00014108  0.52890423
   0.49990413  0.50010053  0.52884624
   0.33332644  0.16666414  0.41680242
   0.33332741  0.66666327  0.41680367
   0.83334485  0.16667131  0.41680143
   0.83334366  0.66667306  0.41680054
   0.16637904  0.33442049  0.63920167
   0.16669331  0.83247788  0.63954825
   0.66701888  0.33502461  0.63927455
   0.66659972  0.83315265  0.63966238
   0.44232654  0.16099200  0.72522652
   0.29750578  0.16961947  0.72481839
Direct configuration=    13
   0.16666578  0.33332713  0.38830584
   0.16666251  0.83333791  0.38830611
   0.66666772  0.33333646  0.38831179
   0.66667661  0.83333608  0.38830886
   0.00013990  0.00006428  0.61166496
  -0.00004843  0.50018916  0.61170234
   0.50045331 -0.00008266  0.61160694
   0.50013224  0.50041750  0.61128493
   0.33323880  0.16651998  0.50006977
   0.33321049  0.66670579  0.49990542
   0.83338235  0.16670942  0.49999257
   0.83351465  0.66674610  0.50004919
   0.16670865  0.33336690  0.47109147
   0.16670693  0.83334419  0.47108698
   0.66663651  0.33332221  0.47109256
   0.66662365  0.83330877  0.47109662
   0.00000415  0.00000353  0.36025988
   0.00000838  0.50000270  0.36025871
   0.49999815 -0.00000413  0.36025993
   0.49999648  0.50000217  0.36026000
   0.33321133  0.16640302  0.58321076
   0.33373733  0.66712442  0.58304440
   0.83299047  0.16624131  0.58316555
   0.83346289  0.66716380  0.58308634
  -0.00002692  0.00007018  0.52892255
   0.00013867  0.49999609  0.52887218
   0.50002133 -0.00013682  0.52889380
   0.49990864  0.50009705  0.52884100
   0.33332721  0.16666464  0.41682518
   0.33332843  0.66666347  0.41682729
   0.83334386  0.16667057  0.41682451
   0.83334238  0.66667252  0.41682325
   0.16639855  0.33439768  0.63918390
   0.16668644  0.83249503  0.63951927
   0.66700756  0.33498710  0.63925518
   0.66659281  0.83314103  0.63963032
   0.44228337  0.16124400  0.72517262
   0.29758683  0.16948542  0.72477703
Direct configuration=    14
   0.16666705  0.33331994  0.38827214
   0.16665982  0.83334401  0.38827100
   0.66666378  0.33333734  0.38827991
   0.66668274  0.83333594  0.38827579
   0.00014229  0.00006689  0.61168709
  -0.00004931  0.50021070  0.61172428
   0.50046192 -0.00007604  0.61163170
   0.50014358  0.50043775  0.61130648
   0.33324139  0.16651398  0.50006662
   0.33320799  0.66671163  0.49990124
   0.83337866  0.16671124  0.49999058
   0.83352084  0.66674676  0.50004319
   0.16670759  0.33335782  0.47108949
   0.16670405  0.83335117  0.47108582
   0.66663347  0.33332204  0.47109361
   0.66663227  0.83331136  0.47109474
   0.00000429  0.00000365  0.36020832
   0.00000983  0.50000287  0.36020745
   0.49999798 -0.00000548  0.36020877
   0.49999587  0.50000260  0.36020873
   0.33318594  0.16636594  0.58324221
   0.33378122  0.66718158  0.58306223
   0.83296095  0.16619782  0.58319770
   0.83349430  0.66723890  0.58310444
  -0.00001714  0.00008273  0.52892449
   0.00013420  0.49999069  0.52887169
   0.50002588 -0.00012625  0.52889147
   0.49990658  0.50008808  0.52883152
   0.33332518  0.16666201  0.41679164
   0.33332603  0.66666351  0.41678969
   0.83334549  0.16667140  0.41678932
   0.83334593  0.66667381  0.41678922
   0.16636912  0.33442852  0.63920872
   0.16669386  0.83247465  0.63956484
   0.66702231  0.33504628  0.63928696
   0.66661060  0.83315878  0.63967749
   0.44207885  0.16081312  0.72526430
   0.29772458  0.16971625  0.72485511
Direct configuration=    15
   0.16667087  0.33329837  0.38817103
   0.16665174  0.83336231  0.38816568
   0.66665194  0.33333997  0.38818428
   0.66670116  0.83333551  0.38817658
   0.00014947  0.00007472  0.61175347
  -0.00005196  0.50027533  0.61179008
   0.50048775 -0.00005618  0.61170598
   0.50017761  0.50049851  0.61137114
   0.33324917  0.16649599  0.50005718
   0.33320050  0.66672915  0.49988868
   0.83336758  0.16671668  0.49998462
   0.83353941  0.66674875  0.50002519
   0.16670439  0.33333059  0.47108356
   0.16669541  0.83337212  0.47108235
   0.66662435  0.33332153  0.47109677
   0.66665811  0.83331911  0.47108911
   0.00000473  0.00000402  0.36005365
   0.00001420  0.50000338  0.36005368
   0.49999747 -0.00000955  0.36005527
   0.49999405  0.50000388  0.36005494
   0.33310976  0.16625468  0.58333658
   0.33391291  0.66735307  0.58311571
   0.83287241  0.16606737  0.58329414
   0.83358854  0.66746420  0.58315872
   0.00001218  0.00012040  0.52893032
   0.00012079  0.49997447  0.52887022
   0.50003952 -0.00009455  0.52888448
   0.49990040  0.50006115  0.52880309
   0.33331911  0.16665413  0.41669100
   0.33331884  0.66666364  0.41667689
   0.83335037  0.16667392  0.41668374
   0.83335657  0.66667767  0.41668713
   0.16628085  0.33452107  0.63928318
   0.16671612  0.83241350  0.63970154
   0.66706656  0.33522383  0.63938229
   0.66666398  0.83321204  0.63981899
   0.44146528  0.15952046  0.72553934
   0.29813786  0.17040874  0.72508937
Direct configuration=    16
   0.16667850  0.33325522  0.38796882
   0.16663560  0.83339891  0.38795504
   0.66662827  0.33334522  0.38799302
   0.66673798  0.83333466  0.38797816
   0.00016383  0.00009038  0.61188624
  -0.00005724  0.50040460  0.61192169
   0.50053941 -0.00001645  0.61185455
   0.50024568  0.50062002  0.61150046
   0.33326471  0.16646002  0.50003830
   0.33318552  0.66676419  0.49986357
   0.83334542  0.16672757  0.49997268
   0.83357657  0.66675274  0.49998919
   0.16669801  0.33327612  0.47107170
   0.16667813  0.83341402  0.47107540
   0.66660612  0.33332050  0.47110308
   0.66670981  0.83333463  0.47107784
   0.00000561  0.00000475  0.35974432
   0.00002293  0.50000440  0.35974613
   0.49999645 -0.00001767  0.35974829
   0.49999039  0.50000644  0.35974736
   0.33295741  0.16603217  0.58352531
   0.33417628  0.66769604  0.58322267
   0.83269533  0.16580646  0.58348703
   0.83377700  0.66791479  0.58326728
   0.00007083  0.00019574  0.52894199
   0.00009396  0.49994204  0.52886728
   0.50006680 -0.00003115  0.52887051
   0.49988805  0.50000730  0.52874621
   0.33330695  0.16663837  0.41648973
   0.33330445  0.66666391  0.41645130
   0.83336013  0.16667895  0.41647258
   0.83337785  0.66668540  0.41648294
   0.16610430  0.33470616  0.63943211
   0.16676063  0.83229122  0.63997495
   0.66715507  0.33557893  0.63957295
   0.66677073  0.83331854  0.64010199
   0.44023815  0.15693515  0.72608944
   0.29896440  0.17179371  0.72555789
Direct configuration=    17
   0.16669377  0.33316893  0.38756439
   0.16660332  0.83347210  0.38753376
   0.66658093  0.33335574  0.38761049
   0.66681164  0.83333295  0.38758133
   0.00019254  0.00012172  0.61215178
  -0.00006781  0.50066313  0.61218491
   0.50064272  0.00006300  0.61215168
   0.50038182  0.50086305  0.61175909
   0.33329581  0.16638807  0.50000053
   0.33315556  0.66683426  0.49981335
   0.83330111  0.16674936  0.49994880
   0.83365087  0.66676072  0.49991720
   0.16668523  0.33316719  0.47104797
   0.16664356  0.83349783  0.47106149
   0.66656965  0.33331844  0.47111571
   0.66681319  0.83336565  0.47105531
   0.00000736  0.00000621  0.35912565
   0.00004038  0.50000645  0.35913102
   0.49999441 -0.00003393  0.35913432
   0.49998307  0.50001156  0.35913220
   0.33265270  0.16558714  0.58390279
   0.33470301  0.66838198  0.58343660
   0.83234116  0.16528465  0.58387280
   0.83415393  0.66881598  0.58348440
   0.00018813  0.00034641  0.52896531
   0.00004031  0.49987718  0.52886140
   0.50012137  0.00009566  0.52884257
   0.49986334  0.49989960  0.52863247
   0.33328264  0.16660685  0.41608719
   0.33327568  0.66666444  0.41600011
   0.83337964  0.16668901  0.41605026
   0.83342041  0.66670085  0.41607457
   0.16575121  0.33507634  0.63972997
   0.16684967  0.83204664  0.64052175
   0.66733209  0.33628911  0.63995428
   0.66698423  0.83353156  0.64066798
   0.43778387  0.15176454  0.72718963
   0.30061750  0.17456365  0.72649493
Direct configuration=    18
   0.16669422  0.33316477  0.38751370
   0.16660333  0.83347587  0.38748015
   0.66657855  0.33335469  0.38756124
   0.66681464  0.83333374  0.38753104
   0.00018255  0.00013181  0.61218956
  -0.00004588  0.50069398  0.61221871
   0.50065326  0.00005030  0.61219156
   0.50038579  0.50090911  0.61179370
   0.33329643  0.16638473  0.49999577
   0.33315933  0.66684025  0.49980874
   0.83329825  0.16674646  0.49994700
   0.83365429  0.66676695  0.49990842
   0.16668137  0.33315633  0.47104558
   0.16663927  0.83350489  0.47106030
   0.66656890  0.33331843  0.47111680
   0.66682505  0.83337100  0.47105303
   0.00000786  0.00000542  0.35905918
   0.00004034  0.50000679  0.35906541
   0.49999429 -0.00003397  0.35906881
   0.49998384  0.50001121  0.35906660
   0.33263208  0.16555152  0.58394008
   0.33475828  0.66845129  0.58345667
   0.83230123  0.16524028  0.58390920
   0.83418687  0.66889919  0.58350476
   0.00020397  0.00036746  0.52896225
   0.00003060  0.49986843  0.52885883
   0.50012829  0.00011705  0.52883530
   0.49986189  0.49988273  0.52862037
   0.33328116  0.16660317  0.41604515
   0.33327306  0.66666557  0.41595372
   0.83338050  0.16669000  0.41600673
   0.83342491  0.66670197  0.41603188
   0.16572366  0.33512265  0.63976113
   0.16685620  0.83201941  0.64058091
   0.66735066  0.33636847  0.63999651
   0.66700248  0.83354382  0.64072771
   0.43725258  0.15119844  0.72731406
   0.30105587  0.17484979  0.72660945
Direct configuration=    19
   0.16669552  0.33315286  0.38736838
   0.16660337  0.83348668  0.38732646
   0.66657176  0.33335167  0.38742005
   0.66682325  0.83333601  0.38738686
   0.00015392  0.00016077  0.61229789
   0.00001702  0.50078243  0.61231561
   0.50068347  0.00001387  0.61230591
   0.50039719  0.50104118  0.61189292
   0.33329822  0.16637517  0.49998209
   0.33317014  0.66685743  0.49979554
   0.83329005  0.16673813  0.49994181
   0.83366409  0.66678480  0.49988324
   0.16667029  0.33312521  0.47103872
   0.16662699  0.83352516  0.47105688
   0.66656675  0.33331842  0.47111994
   0.66685908  0.83338632  0.47104647
   0.00000930  0.00000314  0.35886860
   0.00004022  0.50000776  0.35887727
   0.49999396 -0.00003411  0.35888099
   0.49998605  0.50001021  0.35887851
   0.33257295  0.16544939  0.58404702
   0.33491675  0.66865000  0.58351420
   0.83218674  0.16511306  0.58401355
   0.83428131  0.66913780  0.58356314
   0.00024938  0.00042782  0.52895347
   0.00000273  0.49984334  0.52885143
   0.50014815  0.00017837  0.52881446
   0.49985773  0.49983436  0.52858566
   0.33327691  0.16659262  0.41592462
   0.33326556  0.66666880  0.41582072
   0.83338297  0.16669285  0.41588193
   0.83343781  0.66670518  0.41590946
   0.16564465  0.33525544  0.63985050
   0.16687493  0.83194133  0.64075051
   0.66740392  0.33659600  0.64011759
   0.66705482  0.83357899  0.64089898
   0.43572925  0.14957532  0.72767084
   0.30231279  0.17567020  0.72693778
Direct configuration=    20
   0.16669350  0.33316013  0.38733669
   0.16660950  0.83348114  0.38729177
   0.66657576  0.33334752  0.38738734
   0.66681608  0.83333832  0.38735444
   0.00013008  0.00017464  0.61232644
   0.00005629  0.50080046  0.61233759
   0.50068707 -0.00001754  0.61233505
   0.50038726  0.50108934  0.61191661
   0.33329376  0.16638097  0.49997926
   0.33318330  0.66685773  0.49979384
   0.83329224  0.16672852  0.49994192
   0.83365857  0.66679693  0.49987800
   0.16666467  0.33312383  0.47103544
   0.16662448  0.83352367  0.47105434
   0.66657284  0.33331936  0.47111711
   0.66686444  0.83339166  0.47104335
   0.00000999  0.00000113  0.35883882
   0.00003679  0.50000809  0.35884867
   0.49999430 -0.00003104  0.35885239
   0.49998931  0.50000860  0.35885002
   0.33258407  0.16545563  0.58405887
   0.33493989  0.66867297  0.58351877
   0.83216626  0.16511279  0.58402151
   0.83428197  0.66915215  0.58356781
   0.00026110  0.00044649  0.52894460
  -0.00000616  0.49983681  0.52884900
   0.50015309  0.00019949  0.52880585
   0.49985831  0.49981942  0.52858296
   0.33327853  0.16659082  0.41590695
   0.33326572  0.66667138  0.41580325
   0.83338086  0.16669288  0.41586493
   0.83343922  0.66670466  0.41589152
   0.16565278  0.33528775  0.63986415
   0.16687213  0.83192806  0.64077798
   0.66741291  0.33663856  0.64013806
   0.66705383  0.83356481  0.64092425
   0.43553586  0.14921349  0.72774012
   0.30244936  0.17586239  0.72701029
Direct configuration=    21
   0.16668745  0.33318194  0.38724162
   0.16662788  0.83346451  0.38718770
   0.66658778  0.33333504  0.38728921
   0.66679460  0.83334524  0.38725720
   0.00005856  0.00021626  0.61241208
   0.00017410  0.50085452  0.61240353
   0.50069790 -0.00011175  0.61242246
   0.50035749  0.50123379  0.61198769