CeO2                                    
           1
     7.707464    0.000000    0.000000
    -3.853732    6.674860    0.000000
     0.000000    0.000000   28.319031
   Ce   O    C    O 
  12  24   1   1
Direct configuration=     1
   0.16666700  0.33333300  0.38888900
   0.16666700  0.83333300  0.38888900
   0.66666700  0.33333300  0.38888900
   0.66666700  0.83333300  0.38888900
   0.00000000  0.00000000  0.61111100
   0.00000000  0.50000000  0.61111100
   0.50000000  0.00000000  0.61111100
   0.50000000  0.50000000  0.61111100
   0.33333300  0.16666700  0.50000000
   0.33333300  0.66666700  0.50000000
   0.83333300  0.16666700  0.50000000
   0.83333300  0.66666700  0.50000000
   0.16666700  0.33333300  0.47222200
   0.16666700  0.83333300  0.47222200
   0.66666700  0.33333300  0.47222200
   0.66666700  0.83333300  0.47222200
   0.00000000  0.00000000  0.36111100
   0.00000000  0.50000000  0.36111100
   0.50000000  0.00000000  0.36111100
   0.50000000  0.50000000  0.36111100
   0.33333300  0.16666700  0.58333300
   0.33333300  0.66666700  0.58333300
   0.83333300  0.16666700  0.58333300
   0.83333300  0.66666700  0.58333300
   0.00000000  0.00000000  0.52777800
   0.00000000  0.50000000  0.52777800
   0.50000000  0.00000000  0.52777800
   0.50000000  0.50000000  0.52777800
   0.33333300  0.16666700  0.41666700
   0.33333300  0.66666700  0.41666700
   0.83333300  0.16666700  0.41666700
   0.83333300  0.66666700  0.41666700
   0.16666700  0.33333300  0.63888900
   0.16666700  0.83333300  0.63888900
   0.66666700  0.33333300  0.63888900
   0.66666700  0.83333300  0.63888900
   0.27777800  0.16666700  0.72389500
   0.19223300  0.99557700  0.72389500
Direct configuration=     2
   0.16666547  0.33333483  0.38860937
   0.16666389  0.83333034  0.38860983
   0.66667085  0.33333656  0.38860938
   0.66666753  0.83333342  0.38860968
  -0.00051913 -0.00051848  0.61120783
   0.00013366  0.50038257  0.61139083
   0.50000750 -0.00032115  0.61127599
   0.50019789  0.50023106  0.61148493
   0.33333644  0.16666574  0.49999151
   0.33332343  0.66666289  0.50000669
   0.83333567  0.16667814  0.50000204
   0.83333769  0.66665897  0.50000724
   0.16666254  0.33332427  0.47179496
   0.16666724  0.83333997  0.47179290
   0.66666382  0.33332787  0.47179473
   0.66667266  0.83334068  0.47179523
   0.00000276 -0.00000180  0.36090868
  -0.00000014  0.50000379  0.36090888
   0.49999611  0.00000062  0.36090869
   0.50000105  0.49999858  0.36090841
   0.33331214  0.16668685  0.58314055
   0.33338453  0.66660721  0.58311337
   0.83334362  0.16664521  0.58311855
   0.83327405  0.66665805  0.58311158
  -0.00000007  0.00001324  0.52821414
  -0.00001216  0.49998197  0.52819628
   0.50001101  0.00001784  0.52820664
   0.49999612  0.49998813  0.52819843
   0.33333278  0.16666431  0.41688565
   0.33333004  0.66666812  0.41688425
   0.83333300  0.16666933  0.41688587
   0.83333706  0.66666667  0.41688452
   0.16625000  0.33310885  0.63900376
   0.16660797  0.83226154  0.63847702
   0.66655639  0.33309719  0.63908853
   0.66675466  0.83346968  0.63907468
   0.28012629  0.17014883  0.72422427
   0.19058661  0.99378206  0.72446410
Direct configuration=     3
   0.16666631  0.33333382  0.38876370
   0.16666560  0.83333181  0.38876391
   0.66666873  0.33333460  0.38876371
   0.66666724  0.83333319  0.38876384
  -0.00023261 -0.00023232  0.61115439
   0.00005989  0.50017142  0.61123639
   0.50000336 -0.00014390  0.61118493
   0.50008867  0.50010353  0.61127855
   0.33333454  0.16666644  0.49999620
   0.33332871  0.66666516  0.50000300
   0.83333420  0.16667199  0.50000091
   0.83333510  0.66666340  0.50000324
   0.16666500  0.33332909  0.47203065
   0.16666711  0.83333612  0.47202973
   0.66666557  0.33333070  0.47203055
   0.66666954  0.83333644  0.47203077
   0.00000124 -0.00000080  0.36102034
  -0.00000006  0.50000170  0.36102043
   0.49999826  0.00000028  0.36102035
   0.50000047  0.49999937  0.36102023
   0.33332365  0.16667589  0.58324677
   0.33335609  0.66664021  0.58323459
   0.83333776  0.16665724  0.58323691
   0.83330659  0.66666299  0.58323379
  -0.00000003  0.00000593  0.52797342
  -0.00000545  0.49999192  0.52796542
   0.50000493  0.00000799  0.52797007
   0.49999826  0.49999468  0.52796639
   0.33333290  0.16666579  0.41676497
   0.33333168  0.66666750  0.41676435
   0.83333300  0.16666804  0.41676507
   0.83333482  0.66666685  0.41676447
   0.16648015  0.33323256  0.63894042
   0.16664055  0.83285290  0.63870440
   0.66661744  0.33322734  0.63897840
   0.66670628  0.83339424  0.63897220
   0.27883022  0.16822714  0.72404254
   0.19149529  0.99477272  0.72415000
Direct configuration=     4
   0.16666602  0.33333452  0.38868606
   0.16666491  0.83333109  0.38868638
   0.66666975  0.33333557  0.38868603
   0.66666729  0.83333330  0.38868632
  -0.00037658 -0.00037394  0.61117951
   0.00009708  0.50027370  0.61131346
   0.50000695 -0.00023148  0.61122889
   0.50013814  0.50015947  0.61138250
   0.33333822  0.16667010  0.49999452
   0.33332569  0.66666104  0.50000488
   0.83333561  0.16667796  0.50000111
   0.83333341  0.66665723  0.50000444
   0.16666364  0.33332614  0.47190779
   0.16666723  0.83333862  0.47190645
   0.66666449  0.33332909  0.47190763
   0.66667156  0.83333894  0.47190802
   0.00000192 -0.00000109  0.36095885
  -0.00000005  0.50000257  0.36095895
   0.49999744  0.00000051  0.36095885
   0.50000071  0.49999909  0.36095864
   0.33331852  0.16668449  0.58319561
   0.33337716  0.66661912  0.58317490
   0.83333897  0.16664848  0.58317851
   0.83328167  0.66665740  0.58317404
  -0.00000093  0.00000833  0.52809856
  -0.00000878  0.49998794  0.52808584
   0.50000779  0.00001248  0.52809309
   0.49999803  0.49999172  0.52808790
   0.33333286  0.16666522  0.41682325
   0.33333104  0.66666780  0.41682222
   0.83333310  0.16666864  0.41682334
   0.83333581  0.66666688  0.41682245
   0.16636187  0.33316686  0.63897684
   0.16662148  0.83253772  0.63858635
   0.66658337  0.33316092  0.63903896
   0.66673091  0.83343017  0.63902861
   0.27906320  0.16833752  0.72414118
   0.19147148  0.99516987  0.72431904
Direct configuration=     5
   0.16666515  0.33333663  0.38845312
   0.16666283  0.83332895  0.38845380
   0.66667283  0.33333849  0.38845302
   0.66666743  0.83333365  0.38845376
  -0.00080850 -0.00079879  0.61125490
   0.00020864  0.50058053  0.61154470
   0.50001773 -0.00049423  0.61136078
   0.50028656  0.50032727  0.61169435
   0.33334925  0.16668108  0.49998949
   0.33331663  0.66664870  0.50001052
   0.83333987  0.16669586  0.50000171
   0.83332832  0.66663874  0.50000804
   0.16665956  0.33331728  0.47153920
   0.16666762  0.83334612  0.47153662
   0.66666122  0.33332424  0.47153885
   0.66667764  0.83334644  0.47153974
   0.00000397 -0.00000193  0.36077436
  -0.00000001  0.50000519  0.36077449
   0.49999500  0.00000121  0.36077437
   0.50000143  0.49999828  0.36077389
   0.33330311  0.16671030  0.58304214
   0.33344036  0.66655583  0.58299584
   0.83334262  0.16662220  0.58300333
   0.83320692  0.66664064  0.58299481
  -0.00000363  0.00001552  0.52847397
  -0.00001878  0.49997600  0.52844710
   0.50001636  0.00002594  0.52846215
   0.49999735  0.49998281  0.52845244
   0.33333274  0.16666352  0.41699808
   0.33332914  0.66666870  0.41699584
   0.83333339  0.16667041  0.41699815
   0.83333880  0.66666696  0.41699641
   0.16600703  0.33296973  0.63908611
   0.16656430  0.83159218  0.63823219
   0.66648115  0.33296165  0.63922063
   0.66680480  0.83353794  0.63919785
   0.27976213  0.16866865  0.72443711
   0.19140005  0.99636132  0.72482615
Direct configuration=     6
   0.16666339  0.33334084  0.38798723
   0.16665866  0.83332467  0.38798865
   0.66667899  0.33334433  0.38798699
   0.66666772  0.83333435  0.38798864
  -0.00167234 -0.00164849  0.61140567
   0.00043175  0.50119419  0.61200717
   0.50003927 -0.00101973  0.61162456
   0.50058341  0.50066287  0.61231804
   0.33337132  0.16670305  0.49997944
   0.33329851  0.66662401  0.50002179
   0.83334837  0.16673165  0.50000290
   0.83331813  0.66660175  0.50001523
   0.16665139  0.33329958  0.47080203
   0.16666838  0.83336113  0.47079695
   0.66665469  0.33331454  0.47080131
   0.66668980  0.83336143  0.47080318
   0.00000808 -0.00000362  0.36040538
   0.00000008  0.50001043  0.36040557
   0.49999012  0.00000259  0.36040539
   0.50000286  0.49999665  0.36040440
   0.33327231  0.16676190  0.58273520
   0.33356677  0.66642925  0.58263773
   0.83334991  0.16656965  0.58265296
   0.83305743  0.66660710  0.58263635
  -0.00000903  0.00002990  0.52922480
  -0.00003878  0.49995212  0.52916962
   0.50003351  0.00005287  0.52920027
   0.49999598  0.49996501  0.52918153
   0.33333249  0.16666011  0.41734774
   0.33332534  0.66667049  0.41734307
   0.83333398  0.16667396  0.41734776
   0.83334476  0.66666713  0.41734433
   0.16529735  0.33257549  0.63930466
   0.16644992  0.82970110  0.63752388
   0.66627671  0.33256311  0.63958397
   0.66695258  0.83375347  0.63953632
   0.28116000  0.16933092  0.72502896
   0.19125719  0.99874421  0.72584037
Direct configuration=     7
   0.16666441  0.33333839  0.38825880
   0.16666109  0.83332717  0.38825979
   0.66667540  0.33334093  0.38825864
   0.66666755  0.83333394  0.38825976
  -0.00116880 -0.00115319  0.61131778
   0.00030170  0.50083648  0.61173759
   0.50002671 -0.00071342  0.61147080
   0.50041038  0.50046725  0.61195449
   0.33335846  0.16669024  0.49998530
   0.33330908  0.66663840  0.50001522
   0.83334341  0.16671079  0.50000221
   0.83332407  0.66662331  0.50001104
   0.16665615  0.33330990  0.47123173
   0.16666794  0.83335238  0.47122810
   0.66665850  0.33332019  0.47123123
   0.66668271  0.83335269  0.47123253
   0.00000568 -0.00000263  0.36062046
   0.00000003  0.50000737  0.36062061
   0.49999297  0.00000178  0.36062047
   0.50000202  0.49999760  0.36061978
   0.33329026  0.16673182  0.58291412
   0.33349309  0.66650303  0.58284648
   0.83334566  0.16660029  0.58285719
   0.83314457  0.66662665  0.58284530
  -0.00000588  0.00002152  0.52878714
  -0.00002712  0.49996604  0.52874846
   0.50002351  0.00003717  0.52877002
   0.49999678  0.49997539  0.52875654
   0.33333263  0.16666210  0.41714392
   0.33332755  0.66666944  0.41714067
   0.83333364  0.16667189  0.41714397
   0.83334129  0.66666703  0.41714153
   0.16571103  0.33280529  0.63917727
   0.16651659  0.83080342  0.63793676
   0.66639588  0.33279542  0.63937218
   0.66686644  0.83362784  0.63933902
   0.28034517  0.16894488  0.72468396
   0.19134046  0.99735521  0.72524918
Direct configuration=     8
   0.16666514  0.33333962  0.38826632
   0.16666175  0.83332676  0.38826712
   0.66667555  0.33334117  0.38826586
   0.66666662  0.83333344  0.38826755
  -0.00114669 -0.00107353  0.61129007
   0.00027976  0.50072615  0.61172327
   0.50006912 -0.00066384  0.61144372
   0.50032747  0.50035574  0.61195000
   0.33338275  0.16672590  0.49999343
   0.33330899  0.66661220  0.50001665
   0.83334774  0.16673428  0.50000117
   0.83329445  0.66658774  0.50000439
   0.16665216  0.33330297  0.47120652
   0.16666663  0.83335670  0.47120458
   0.66665811  0.33331804  0.47120579
   0.66668851  0.83335741  0.47120862
   0.00000551 -0.00000202  0.36057511
  -0.00000032  0.50000662  0.36057503
   0.49999384  0.00000243  0.36057510
   0.50000208  0.49999758  0.36057437
   0.33329291  0.16675158  0.58294481
   0.33357346  0.66647028  0.58286734
   0.83331732  0.16655608  0.58287605
   0.83305827  0.66660491  0.58287156
  -0.00001952  0.00000455  0.52880485
  -0.00002858  0.49997624  0.52876778
   0.50002296  0.00003091  0.52878790
   0.50000826  0.49998073  0.52878176
   0.33333323  0.16666295  0.41710895
   0.33332781  0.66666906  0.41710562
   0.83333383  0.16667236  0.41710886
   0.83334063  0.66666651  0.41710692
   0.16568041  0.33277623  0.63921215
   0.16650204  0.83070826  0.63792616
   0.66637126  0.33278657  0.63941756
   0.66687402  0.83361215  0.63938561
   0.28051905  0.16904763  0.72474966
   0.19130447  0.99758164  0.72535182
Direct configuration=     9
   0.16666730  0.33334331  0.38828887
   0.16666373  0.83332556  0.38828910
   0.66667600  0.33334191  0.38828753
   0.66666380  0.83333195  0.38829090
  -0.00108037 -0.00083455  0.61120691
   0.00021393  0.50039518  0.61168031
   0.50019636 -0.00051511  0.61136247
   0.50007876  0.50002123  0.61193655
   0.33345561  0.16683287  0.50001781
   0.33330874  0.66653361  0.50002092
   0.83336074  0.16680475  0.49999807
   0.83320560  0.66648101  0.49998446
   0.16664020  0.33328220  0.47113090
   0.16666273  0.83336964  0.47113399
   0.66665694  0.33331157  0.47112948
   0.66670590  0.83337158  0.47113689
   0.00000498 -0.00000019  0.36043906
  -0.00000137  0.50000436  0.36043828
   0.49999646  0.00000438  0.36043897
   0.50000224  0.49999752  0.36043814
   0.33330085  0.16681087  0.58303690
   0.33381459  0.66637203  0.58292995
   0.83323229  0.16642346  0.58293262
   0.83279937  0.66653968  0.58295033
  -0.00006043 -0.00004637  0.52885798
  -0.00003293  0.50000683  0.52882572
   0.50002131  0.00001211  0.52884155
   0.50004268  0.49999674  0.52885741
   0.33333500  0.16666550  0.41700404
   0.33332856  0.66666790  0.41700046
   0.83333442  0.16667378  0.41700354
   0.83333866  0.66666493  0.41700311
   0.16558857  0.33268903  0.63931682
   0.16645840  0.83042276  0.63789437
   0.66629740  0.33276001  0.63955373
   0.66689678  0.83356511  0.63952537
   0.28104068  0.16935588  0.72494673
   0.19119650  0.99826093  0.72565973
Direct configuration=    10
   0.16667163  0.33335070  0.38833398
   0.16666768  0.83332315  0.38833307
   0.66667691  0.33334338  0.38833088
   0.66665817  0.83332896  0.38833762
  -0.00094771 -0.00035659  0.61104061
   0.00008228  0.49973322  0.61159438
   0.50045083 -0.00021764  0.61119998
   0.49958134  0.49935219  0.61190965
   0.33360134  0.16704682  0.50006658
   0.33330823  0.66637643  0.50002946
   0.83338672  0.16694570  0.49999187
   0.83302790  0.66626755  0.49994460
   0.16661627  0.33324064  0.47097964
   0.16665491  0.83339554  0.47099283
   0.66665460  0.33329864  0.47097687
   0.66674068  0.83339993  0.47099344
   0.00000393  0.00000349  0.36016695
  -0.00000347  0.49999984  0.36016478
   0.50000169  0.00000828  0.36016673
   0.50000257  0.49999742  0.36016568
   0.33331672  0.16692944  0.58322107
   0.33429685  0.66617553  0.58305516
   0.83306224  0.16615823  0.58304577
   0.83228157  0.66640923  0.58310789
  -0.00014224 -0.00014819  0.52896425
  -0.00004164  0.50006801  0.52894161
   0.50001801 -0.00002549  0.52894885
   0.50011154  0.50002878  0.52900872
   0.33333855  0.16667061  0.41679422
   0.33333008  0.66666560  0.41679014
   0.83333560  0.16667662  0.41679291
   0.83333473  0.66666177  0.41679549
   0.16540489  0.33251463  0.63952614
   0.16637111  0.82985178  0.63783078
   0.66614969  0.33270690  0.63982605
   0.66694229  0.83347101  0.63980489
   0.28208393  0.16997238  0.72534089
   0.19098055  0.99961952  0.72627556
Direct configuration=    11
   0.16667270  0.33335076  0.38832859
   0.16666944  0.83332451  0.38832861
   0.66667525  0.33334209  0.38832487
   0.66665717  0.83332894  0.38833282
  -0.00094625 -0.00032535  0.61103101
   0.00006544  0.49966573  0.61159141
   0.50047506 -0.00019928  0.61119153
   0.49953804  0.49928929  0.61191562
   0.33361409  0.16706758  0.50006961
   0.33331008  0.66636003  0.50002961
   0.83338944  0.16695794  0.49998734
   0.83300891  0.66624733  0.49994083
   0.16661342  0.33323527  0.47097001
   0.16665518  0.83339950  0.47098401
   0.66665334  0.33329556  0.47096668
   0.66674417  0.83340372  0.47098406
   0.00000340  0.00000388  0.36013434
  -0.00000413  0.49999895  0.36013200
   0.50000276  0.00000898  0.36013406
   0.50000285  0.49999751  0.36013303
   0.33331921  0.16694620  0.58324166
   0.33435709  0.66614333  0.58306813
   0.83304148  0.16612777  0.58305716
   0.83221164  0.66638600  0.58312519
  -0.00014920 -0.00015567  0.52896818
  -0.00004352  0.50007125  0.52894823
   0.50001805 -0.00002649  0.52895318
   0.50011537  0.50002394  0.52901781
   0.33334014  0.16667282  0.41676991
   0.33333021  0.66666424  0.41676543
   0.83333578  0.16667788  0.41676826
   0.83333291  0.66665979  0.41677073
   0.16537631  0.33248870  0.63955139
   0.16636265  0.82978827  0.63782418
   0.66613257  0.33269458  0.63985809
   0.66694957  0.83346446  0.63983774
   0.28233325  0.17025341  0.72539458
   0.19084712  0.99961056  0.72636012
Direct configuration=    12
   0.16667383  0.33335083  0.38832294
   0.16667129  0.83332593  0.38832393
   0.66667351  0.33334074  0.38831857
   0.66665613  0.83332893  0.38832779
  -0.00094472 -0.00029260  0.61102095
   0.00004778  0.49959499  0.61158830
   0.50050045 -0.00018003  0.61118268
   0.49949264  0.49922335  0.61192188
   0.33362745  0.16708935  0.50007278
   0.33331201  0.66634283  0.50002977
   0.83339230  0.16697076  0.49998260
   0.83298901  0.66622612  0.49993687
   0.16661043  0.33322965  0.47095991
   0.16665547  0.83340365  0.47097476
   0.66665202  0.33329234  0.47095600
   0.66674782  0.83340770  0.47097424
   0.00000284  0.00000429  0.36010016
  -0.00000481  0.49999801  0.36009763
   0.50000389  0.00000970  0.36009982
   0.50000313  0.49999761  0.36009879
   0.33332183  0.16696376  0.58326325
   0.33442024  0.66610958  0.58308171
   0.83301973  0.16609585  0.58306911
   0.83213835  0.66636165  0.58314332
  -0.00015649 -0.00016350  0.52897230
  -0.00004549  0.50007465  0.52895516
   0.50001809 -0.00002755  0.52895772
   0.50011938  0.50001887  0.52902733
   0.33334181  0.16667514  0.41674442
   0.33333034  0.66666283  0.41673952
   0.83333596  0.16667919  0.41674243
   0.83333100  0.66665772  0.41674477
   0.16534635  0.33246151  0.63957786
   0.16635377  0.82972171  0.63781726
   0.66611462  0.33268167  0.63989168
   0.66695720  0.83345760  0.63987217
   0.28259459  0.17054799  0.72545086
   0.19070726  0.99960117  0.72644876
Direct configuration=    13
   0.16667608  0.33335096  0.38831164
   0.16667497  0.83332877  0.38831458
   0.66667003  0.33333803  0.38830597
   0.66665403  0.83332890  0.38831774
  -0.00094167 -0.00022709  0.61100082
   0.00001247  0.49945350  0.61158209
   0.50055124 -0.00014153  0.61116497
   0.49940185  0.49909148  0.61193439
   0.33365417  0.16713288  0.50007914
   0.33331588  0.66630844  0.50003008
   0.83339801  0.16699641  0.49997311
   0.83294919  0.66618372  0.49992896
   0.16660444  0.33321839  0.47093972
   0.16665604  0.83341196  0.47095627
   0.66664938  0.33328590  0.47093462
   0.66675513  0.83341565  0.47095459
   0.00000173  0.00000511  0.36003179
  -0.00000619  0.49999613  0.36002891
   0.50000614  0.00001115  0.36003134
   0.50000370  0.49999782  0.36003033
   0.33332705  0.16699889  0.58330642
   0.33454652  0.66604207  0.58310889
   0.83297622  0.16603199  0.58309300
   0.83199175  0.66631296  0.58317958
  -0.00017107 -0.00017916  0.52898053
  -0.00004942  0.50008144  0.52896904
   0.50001818 -0.00002965  0.52896679
   0.50012742  0.50000873  0.52904637
   0.33334515  0.16667977  0.41669345
   0.33333062  0.66666000  0.41668770
   0.83333634  0.16668182  0.41669076
   0.83332719  0.66665358  0.41669286
   0.16528642  0.33240714  0.63963080
   0.16633602  0.82958857  0.63780342
   0.66607872  0.33265585  0.63995886
   0.66697247  0.83344389  0.63994103
   0.28311727  0.17113715  0.72556342
   0.19042754  0.99958239  0.72662603
Direct configuration=    14
   0.16667762  0.33334943  0.38828758
   0.16667778  0.83333221  0.38829302
   0.66666635  0.33333514  0.38828098
   0.66665331  0.83332938  0.38829466
  -0.00097114 -0.00027318  0.61101930
   0.00000694  0.49946143  0.61159657
   0.50054401 -0.00017254  0.61118493
   0.49942330  0.49910874  0.61195519
   0.33364842  0.16712784  0.50007451
   0.33332052  0.66630961  0.50002842
   0.83339724  0.16699003  0.49996434
   0.83294900  0.66618896  0.49992973
   0.16660334  0.33321571  0.47095031
   0.16665834  0.83341468  0.47096659
   0.66664739  0.33328191  0.47094428
   0.66675504  0.83341757  0.47096406
   0.00000089  0.00000518  0.36001864
  -0.00000707  0.49999504  0.36001563
   0.50000739  0.00001173  0.36001806
   0.50000418  0.49999792  0.36001707
   0.33332882  0.16700908  0.58331072
   0.33457218  0.66601314  0.58310923
   0.83296832  0.16602394  0.58309250
   0.83195179  0.66628945  0.58318229
  -0.00016796 -0.00017329  0.52896697
  -0.00005149  0.50007504  0.52895945
   0.50001848 -0.00002372  0.52895394
   0.50012025  0.49998979  0.52903382
   0.33334792  0.16668350  0.41668636
   0.33333068  0.66665739  0.41667985
   0.83333654  0.16668384  0.41668313
   0.83332401  0.66664984  0.41668432
   0.16526187  0.33238616  0.63964143
   0.16633614  0.82956991  0.63780121
   0.66607284  0.33263807  0.63997039
   0.66697941  0.83345166  0.63995261
   0.28322810  0.17122029  0.72559877
   0.19039025  0.99967310  0.72667916
Direct configuration=    15
   0.16668223  0.33334484  0.38821539
   0.16668620  0.83334254  0.38822835
   0.66665531  0.33332646  0.38820603
   0.66665117  0.83333081  0.38822543
  -0.00105954 -0.00041143  0.61107475
  -0.00000963  0.49948523  0.61164003
   0.50052232 -0.00026557  0.61124480
   0.49948765  0.49916053  0.61201759
   0.33363116  0.16711271  0.50006062
   0.33333441  0.66631310  0.50002345
   0.83339490  0.16697089  0.49993802
   0.83294842  0.66620468  0.49993205
   0.16660005  0.33320768  0.47098206
   0.16666525  0.83342285  0.47099753
   0.66664142  0.33326995  0.47097326
   0.66675480  0.83342332  0.47099245
  -0.00000160  0.00000537  0.35997918
  -0.00000972  0.49999176  0.35997578
   0.50001113  0.00001345  0.35997820
   0.50000562  0.49999823  0.35997728
   0.33333413  0.16703966  0.58332361
   0.33464917  0.66592634  0.58311025
   0.83294461  0.16599980  0.58309099
   0.83183189  0.66621894  0.58319045
  -0.00015864 -0.00015565  0.52892630
  -0.00005770  0.50005586  0.52893067
   0.50001937 -0.00000592  0.52891539
   0.50009874  0.49993296  0.52899620
   0.33335623  0.16669470  0.41666509
   0.33333088  0.66664956  0.41665630
   0.83333714  0.16668991  0.41666025
   0.83331448  0.66663863  0.41665870
   0.16518820  0.33232325  0.63967330
   0.16633653  0.82951394  0.63779456
   0.66605521  0.33258472  0.64000497
   0.66700025  0.83347497  0.63998735
   0.28356062  0.17146972  0.72570481
   0.19027837  0.99994522  0.72683855
Direct configuration=    16
   0.16669145  0.33333567  0.38807102
   0.16670303  0.83336319  0.38809902
   0.66663324  0.33330911  0.38805612
   0.66664688  0.83333366  0.38808696
  -0.00123635 -0.00068793  0.61118563
  -0.00004277  0.49953283  0.61172695
   0.50047895 -0.00045164  0.61136456
   0.49961637  0.49926410  0.61214238
   0.33359664  0.16708244  0.50003284
   0.33336221  0.66632009  0.50001350
   0.83339024  0.16693259  0.49988537
   0.83294726  0.66623613  0.49993670
   0.16659345  0.33319162  0.47104556
   0.16667905  0.83343917  0.47105942
   0.66662948  0.33324601  0.47103122
   0.66675430  0.83343483  0.47104925
  -0.00000660  0.00000576  0.35990027
  -0.00001502  0.49998522  0.35989609
   0.50001861  0.00001689  0.35989850
   0.50000850  0.49999884  0.35989769
   0.33334475  0.16710081  0.58334941
   0.33480313  0.66575275  0.58311230
   0.83289720  0.16595151  0.58308797
   0.83159210  0.66607791  0.58320675
  -0.00014000 -0.00012039  0.52884495
  -0.00007011  0.50001749  0.52887313
   0.50002114  0.00002967  0.52883828
   0.50005572  0.49981931  0.52892095
   0.33337284  0.16671710  0.41662254
   0.33333127  0.66663391  0.41660920
   0.83333834  0.16670205  0.41661447
   0.83329542  0.66661622  0.41660747
   0.16504087  0.33219741  0.63973705
   0.16633729  0.82940200  0.63778128
   0.66601994  0.33247803  0.64007412
   0.66704193  0.83352159  0.64005684
   0.28422564  0.17196858  0.72591690
   0.19005462  0.00048945  0.72715732
Direct configuration=    17
   0.16670990  0.33331733  0.38778227
   0.16673670  0.83340450  0.38784034
   0.66658910  0.33327441  0.38775631
   0.66663829  0.83333938  0.38781004
  -0.00158997 -0.00124095  0.61140739
  -0.00010906  0.49962801  0.61190079
   0.50039220 -0.00082377  0.61160406
   0.49987379  0.49947123  0.61239197
   0.33352760  0.16702191  0.49997729
   0.33341779  0.66633407  0.49999360
   0.83338090  0.16685600  0.49978008
   0.83294494  0.66629903  0.49994600
   0.16658027  0.33315950  0.47117257
   0.16670667  0.83347183  0.47118320
   0.66660562  0.33319814  0.47114713
   0.66675331  0.83345784  0.47116284
  -0.00001659  0.00000654  0.35974244
  -0.00002563  0.49997214  0.35973671
   0.50003356  0.00002378  0.35973910
   0.50001425  0.50000006  0.35973852
   0.33336599  0.16722312  0.58340100
   0.33511107  0.66540556  0.58311640
   0.83280238  0.16585492  0.58308194
   0.83111252  0.66579585  0.58323935
  -0.00010272 -0.00004985  0.52868225
  -0.00009494  0.49994074  0.52875803
   0.50002469  0.00010086  0.52868407
   0.49996968  0.49959200  0.52877045
   0.33340606  0.16676189  0.41653744
   0.33333206  0.66660261  0.41651501
   0.83334075  0.16672633  0.41652292
   0.83325729  0.66657139  0.41650502
   0.16474620  0.33194573  0.63986455
   0.16633882  0.82917813  0.63775471
   0.66594941  0.33226466  0.64021244
   0.66712528  0.83361483  0.64019582
   0.28555570  0.17296631  0.72634108
   0.18960712  0.00157792  0.72779485
Direct configuration=    18
   0.16674678  0.33328064  0.38720478
   0.16680403  0.83348711  0.38732299
   0.66650082  0.33320500  0.38715668
   0.66662113  0.83335080  0.38725619
  -0.00229720 -0.00234697  0.61185092
  -0.00024163  0.49981839  0.61224847
   0.50021871 -0.00156803  0.61208308
   0.50038864  0.49988551  0.61289115
   0.33338953  0.16690086  0.49986618
   0.33352897  0.66636203  0.49995381
   0.83336224  0.16670282  0.49956951
   0.83294031  0.66642482  0.49996459
   0.16655390  0.33309527  0.47142659
   0.16676190  0.83353713  0.47143076
   0.66655788  0.33310241  0.47137896
   0.66675133  0.83350386  0.47139002
  -0.00003658  0.00000810  0.35942679
  -0.00004683  0.49994596  0.35941794
   0.50006347  0.00003755  0.35942030
   0.50002575  0.50000251  0.35942018
   0.33340846  0.16746774  0.58350417
   0.33572693  0.66471118  0.58312460
   0.83261273  0.16566176  0.58306988
   0.83015336  0.66523173  0.58330456
  -0.00002816  0.00009121  0.52835686
  -0.00014460  0.49978725  0.52852784
   0.50003179  0.00024324  0.52837564
   0.49979760  0.49913739  0.52846945
   0.33347250  0.16685148  0.41636725
   0.33333364  0.66654000  0.41632663
   0.83334556  0.16677488  0.41633982
   0.83318104  0.66648174  0.41630010
   0.16415687  0.33144239  0.64011956
   0.16634189  0.82873038  0.63770156
   0.66580834  0.33183791  0.64048907
   0.66729199  0.83380131  0.64047378
   0.28821580  0.17496175  0.72718943
   0.18871211  0.00375486  0.72906993
Direct configuration=    19
   0.16672246  0.33330483  0.38758557
   0.16675963  0.83343264  0.38766413
   0.66655903  0.33325077  0.38755207
   0.66663245  0.83334327  0.38762139
  -0.00183086 -0.00161767  0.61155846
  -0.00015422  0.49969286  0.61201921
   0.50033311 -0.00107727  0.61176722
   0.50004915  0.49961234  0.61256200
   0.33348057  0.16698068  0.49993944
   0.33345566  0.66634360  0.49998005
   0.83337455  0.16680383  0.49970836
   0.83294337  0.66634187  0.49995233
   0.16657129  0.33313762  0.47125909
   0.16672548  0.83349407  0.47126752
   0.66658935  0.33316553  0.47122609
   0.66675263  0.83347352  0.47124022
  -0.00002340  0.00000707  0.35963493
  -0.00003285  0.49996322  0.35962813
   0.50004375  0.00002847  0.35963051
   0.50001817  0.50000090  0.35963009
   0.33338045  0.16730644  0.58343614
   0.33532084  0.66516905  0.58311919
   0.83273778  0.16578913  0.58307783
   0.83078581  0.66560370  0.58326156
  -0.00007733 -0.00000181  0.52857142
  -0.00011186  0.49988846  0.52867962
   0.50002711  0.00014936  0.52857901
   0.49991107  0.49943715  0.52866792
   0.33342869  0.16679240  0.41647947
   0.33333260  0.66658128  0.41645085
   0.83334239  0.16674287  0.41646056
   0.83323132  0.66654085  0.41643522
   0.16454547  0.33177429  0.63995141
   0.16633987  0.82902562  0.63773660
   0.66590136  0.33211930  0.64030666
   0.66718207  0.83367835  0.64029050
   0.28646177  0.17364598  0.72663004
   0.18930227  0.00231942  0.72822916
Direct configuration=    20
   0.16673827  0.33331888  0.38751906
   0.16674062  0.83341517  0.38761697
   0.66656539  0.33327891  0.38748534
   0.66662922  0.83331464  0.38755843
  -0.00189211 -0.00168996  0.61158875
  -0.00024173  0.49950682  0.61202315
   0.50034605 -0.00115121  0.61178780
   0.50001910  0.49951052  0.61260716
   0.33347237  0.16694720  0.49993419
   0.33349377  0.66634956  0.49997009
   0.83333863  0.16676373  0.49967801
   0.83291806  0.66633523  0.49994121
   0.16656442  0.33314928  0.47126015
   0.16671296  0.83346398  0.47127507
   0.66660949  0.33317251  0.47122269
   0.66673849  0.83345306  0.47124128
  -0.00002149  0.00001607  0.35953144
  -0.00003078  0.49995607  0.35952249
   0.50004810  0.00003042  0.35952439
   0.50001157  0.49999743  0.35952052
   0.33336170  0.16729104  0.58350463
   0.33543392  0.66502678  0.58316850
   0.83266928  0.16570893  0.58311716
   0.83060956  0.66547792  0.58331983
  -0.00008744 -0.00003900  0.52853193
  -0.00010202  0.49990591  0.52865861
   0.49998119  0.00012260  0.52854206
   0.49989497  0.49932920  0.52859817
   0.33343601  0.16680929  0.41637548
   0.33333697  0.66656835  0.41635166
   0.83334575  0.16674594  0.41635212
   0.83321566  0.66652988  0.41633488
   0.16434608  0.33162456  0.64004169
   0.16632505  0.82898273  0.63779962
   0.66593127  0.33199186  0.64038917
   0.66723793  0.83375220  0.64038819
   0.28691215  0.17361438  0.72690263
   0.18940255  0.00366310  0.72860548
Direct configuration=    21
   0.16673838  0.33331898  0.38751860
   0.16674049  0.83341505  0.38761665
   0.66656543  0.33327910  0.38748488
   0.66662919  0.83331445  0.38755800
  -0.00189253 -0.00169046  0.61158896
  -0.00024233  0.49950555  0.61202317
   0.50034614 -0.00115171  0.61178794
   0.50001889  0.49950982  0.61260747