CeO2                                    
           1
     7.707464    0.000000    0.000000
    -3.853732    6.674860    0.000000
     0.000000    0.000000   28.319031
   Ce   O    C    O 
  12  24   1   1
Direct configuration=     1
   0.16666700  0.33333300  0.38888900
   0.16666700  0.83333300  0.38888900
   0.66666700  0.33333300  0.38888900
   0.66666700  0.83333300  0.38888900
   0.00000000  0.00000000  0.61111100
   0.00000000  0.50000000  0.61111100
   0.50000000  0.00000000  0.61111100
   0.50000000  0.50000000  0.61111100
   0.33333300  0.16666700  0.50000000
   0.33333300  0.66666700  0.50000000
   0.83333300  0.16666700  0.50000000
   0.83333300  0.66666700  0.50000000
   0.16666700  0.33333300  0.47222200
   0.16666700  0.83333300  0.47222200
   0.66666700  0.33333300  0.47222200
   0.66666700  0.83333300  0.47222200
   0.00000000  0.00000000  0.36111100
   0.00000000  0.50000000  0.36111100
   0.50000000  0.00000000  0.36111100
   0.50000000  0.50000000  0.36111100
   0.33333300  0.16666700  0.58333300
   0.33333300  0.66666700  0.58333300
   0.83333300  0.16666700  0.58333300
   0.83333300  0.66666700  0.58333300
   0.00000000  0.00000000  0.52777800
   0.00000000  0.50000000  0.52777800
   0.50000000  0.00000000  0.52777800
   0.50000000  0.50000000  0.52777800
   0.33333300  0.16666700  0.41666700
   0.33333300  0.66666700  0.41666700
   0.83333300  0.16666700  0.41666700
   0.83333300  0.66666700  0.41666700
   0.16666700  0.33333300  0.63888900
   0.16666700  0.83333300  0.63888900
   0.66666700  0.33333300  0.63888900
   0.66666700  0.83333300  0.63888900
   0.44444400  0.38888900  0.72389500
   0.29627600  0.38888900  0.72389500
Direct configuration=     2
   0.16666369  0.33333394  0.38861495
   0.16666513  0.83333011  0.38861485
   0.66667187  0.33333455  0.38861396
   0.66666911  0.83333500  0.38861459
  -0.00011213  0.00012339  0.61129807
  -0.00011134  0.49971869  0.61138499
   0.50015411  0.00012165  0.61135226
   0.50044633  0.50029081  0.61109743
   0.33332447  0.16666152  0.50000672
   0.33331733  0.66666098  0.50000938
   0.83334499  0.16667724  0.50001518
   0.83334787  0.66666893  0.50000908
   0.16666144  0.33332501  0.47178962
   0.16665616  0.83333330  0.47179008
   0.66667214  0.33334027  0.47179334
   0.66667949  0.83333465  0.47179247
   0.00000186  0.00000064  0.36090399
   0.00000871  0.50000456  0.36090338
   0.49999534 -0.00000788  0.36090288
   0.49999599  0.50000362  0.36090293
   0.33335261  0.16668278  0.58312935
   0.33340418  0.66673871  0.58312038
   0.83322382  0.16655840  0.58310878
   0.83331336  0.66670500  0.58311131
  -0.00000900 -0.00001465  0.52820049
  -0.00001130  0.50000600  0.52819013
   0.50000420  0.00000343  0.52819972
   0.50002260  0.50000809  0.52821205
   0.33332467  0.16666234  0.41688113
   0.33333096  0.66666591  0.41687937
   0.83333951  0.16666495  0.41688266
   0.83333995  0.66667524  0.41688337
   0.16501630  0.33250786  0.63819736
   0.16678731  0.83353920  0.63913748
   0.66675902  0.33301979  0.63886509
   0.66658898  0.83326133  0.63912362
   0.44569032  0.38925740  0.72445200
   0.29618995  0.38924520  0.72480560
Direct configuration=     3
   0.16666100  0.33333470  0.38839171
   0.16666361  0.83332776  0.38839153
   0.66667584  0.33333581  0.38838992
   0.66667084  0.83333664  0.38839107
  -0.00020346  0.00022391  0.61145045
  -0.00020204  0.49948955  0.61160817
   0.50027965  0.00022074  0.61154879
   0.50080990  0.50052769  0.61108638
   0.33331753  0.16665706  0.50001219
   0.33330457  0.66665607  0.50001702
   0.83335476  0.16668557  0.50002754
   0.83335998  0.66667050  0.50001648
   0.16665692  0.33331850  0.47143742
   0.16664733  0.83333355  0.47143825
   0.66667632  0.33334619  0.47144416
   0.66668966  0.83333599  0.47144260
   0.00000337  0.00000115  0.36073537
   0.00001581  0.50000827  0.36073426
   0.49999155 -0.00001429  0.36073335
   0.49999272  0.50000657  0.36073344
   0.33336858  0.16669564  0.58296346
   0.33346217  0.66679712  0.58294718
   0.83313489  0.16646994  0.58292613
   0.83329736  0.66673595  0.58293073
  -0.00001633 -0.00002658  0.52854464
  -0.00002051  0.50001089  0.52852583
   0.50000762  0.00000623  0.52854324
   0.50004101  0.50001468  0.52856561
   0.33331788  0.16665855  0.41705555
   0.33332930  0.66666503  0.41705236
   0.83334482  0.16666328  0.41705832
   0.83334561  0.66668195  0.41705962
   0.16367170  0.33183574  0.63763397
   0.16688531  0.83370717  0.63933988
   0.66683397  0.33276466  0.63884562
   0.66652542  0.83320294  0.63931473
   0.44670552  0.38955749  0.72490571
   0.29611985  0.38953535  0.72554733
Direct configuration=     4
   0.16665997  0.33333454  0.38833944
   0.16666331  0.83332742  0.38833934
   0.66667687  0.33333585  0.38833763
   0.66667154  0.83333750  0.38833884
  -0.00023068  0.00023647  0.61148351
  -0.00022205  0.49944311  0.61165721
   0.50029896  0.00023393  0.61159487
   0.50090259  0.50059333  0.61107546
   0.33331272  0.16664681  0.50001312
   0.33329619  0.66666010  0.50001847
   0.83335554  0.16668825  0.50003062
   0.83337283  0.66667427  0.50001593
   0.16665890  0.33331827  0.47134718
   0.16664556  0.83333404  0.47134781
   0.66667547  0.33334869  0.47135440
   0.66669056  0.83333355  0.47135287
   0.00000364  0.00000117  0.36068475
   0.00001700  0.50000898  0.36068354
   0.49999088 -0.00001539  0.36068257
   0.49999227  0.50000714  0.36068268
   0.33338240  0.16670081  0.58292697
   0.33348741  0.66682185  0.58290962
   0.83308650  0.16643100  0.58288324
   0.83328834  0.66674191  0.58289145
  -0.00001775 -0.00003040  0.52863155
  -0.00002274  0.50001291  0.52861194
   0.50000670  0.00000648  0.52863012
   0.50004779  0.50001773  0.52865490
   0.33331682  0.16665790  0.41709058
   0.33332895  0.66666487  0.41708713
   0.83334575  0.16666310  0.41709334
   0.83334667  0.66668303  0.41709494
   0.16332482  0.33166386  0.63749081
   0.16691194  0.83375099  0.63939895
   0.66685316  0.33270067  0.63884517
   0.66650480  0.83318006  0.63937064
   0.44648713  0.38964589  0.72504130
   0.29660919  0.38961735  0.72575710
Direct configuration=     5
   0.16665804  0.33333424  0.38824104
   0.16666277  0.83332677  0.38824109
   0.66667881  0.33333592  0.38823921
   0.66667287  0.83333914  0.38824053
  -0.00028192  0.00026012  0.61154574
  -0.00025970  0.49935568  0.61174950
   0.50033532  0.00025875  0.61168161
   0.50107707  0.50071688  0.61105490
   0.33330368  0.16662750  0.50001487
   0.33328042  0.66666768  0.50002119
   0.83335702  0.16669328  0.50003642
   0.83339702  0.66668136  0.50001489
   0.16666264  0.33331782  0.47117734
   0.16664223  0.83333496  0.47117758
   0.66667387  0.33335340  0.47118542
   0.66669225  0.83332895  0.47118398
   0.00000416  0.00000119  0.36058947
   0.00001925  0.50001032  0.36058808
   0.49998962 -0.00001746  0.36058699
   0.49999144  0.50000820  0.36058713
   0.33340841  0.16671054  0.58285828
   0.33353493  0.66686839  0.58283892
   0.83299542  0.16635769  0.58280250
   0.83327138  0.66675312  0.58281752
  -0.00002041 -0.00003760  0.52879516
  -0.00002694  0.50001669  0.52877404
   0.50000496  0.00000694  0.52879366
   0.50006055  0.50002347  0.52882297
   0.33331482  0.16665669  0.41715651
   0.33332830  0.66666458  0.41715259
   0.83334751  0.16666275  0.41715925
   0.83334866  0.66668506  0.41716143
   0.16267188  0.33134033  0.63722135
   0.16696207  0.83383346  0.63951013
   0.66688929  0.33258021  0.63884434
   0.66646598  0.83313698  0.63947589
   0.44607606  0.38981229  0.72529653
   0.29753030  0.38977171  0.72615195
Direct configuration=     6
   0.16665742  0.33333415  0.38820928
   0.16666259  0.83332657  0.38820938
   0.66667944  0.33333594  0.38820745
   0.66667329  0.83333966  0.38820881
  -0.00029845  0.00026775  0.61156582
  -0.00027186  0.49932746  0.61177929
   0.50034706  0.00026676  0.61170960
   0.50113337  0.50075675  0.61104826
   0.33330077  0.16662127  0.50001544
   0.33327533  0.66667013  0.50002207
   0.83335750  0.16669491  0.50003829
   0.83340483  0.66668365  0.50001456
   0.16666385  0.33331768  0.47112253
   0.16664115  0.83333525  0.47112264
   0.66667336  0.33335491  0.47113089
   0.66669279  0.83332746  0.47112948
   0.00000433  0.00000120  0.36055872
   0.00001997  0.50001076  0.36055727
   0.49998921 -0.00001812  0.36055615
   0.49999117  0.50000854  0.36055629
   0.33341680  0.16671368  0.58283612
   0.33355026  0.66688342  0.58281611
   0.83296602  0.16633403  0.58277645
   0.83326591  0.66675674  0.58279366
  -0.00002128 -0.00003993  0.52884795
  -0.00002830  0.50001792  0.52882635
   0.50000439  0.00000709  0.52884643
   0.50006467  0.50002532  0.52887721
   0.33331417  0.16665630  0.41717779
   0.33332810  0.66666448  0.41717371
   0.83334808  0.16666264  0.41718052
   0.83334930  0.66668571  0.41718289
   0.16246117  0.33123592  0.63713439
   0.16697825  0.83386008  0.63954601
   0.66690094  0.33254134  0.63884407
   0.66645345  0.83312308  0.63950985
   0.44594340  0.38986598  0.72537890
   0.29782755  0.38982152  0.72627937
Direct configuration=     7
   0.16665666  0.33333354  0.38821102
   0.16666294  0.83332703  0.38821101
   0.66667953  0.33333522  0.38820948
   0.66667371  0.83334069  0.38821078
  -0.00031324  0.00023958  0.61155883
  -0.00027619  0.49934298  0.61177041
   0.50032800  0.00024968  0.61170865
   0.50115139  0.50077435  0.61103254
   0.33329481  0.16660292  0.50001438
   0.33326540  0.66668107  0.50002073
   0.83335370  0.16669563  0.50003827
   0.83342439  0.66669052  0.50000915
   0.16666987  0.33332022  0.47111004
   0.16664146  0.83333597  0.47110942
   0.66666993  0.33335746  0.47111784
   0.66669002  0.83332186  0.47111681
   0.00000423  0.00000095  0.36053730
   0.00001903  0.50001052  0.36053587
   0.49998961 -0.00001734  0.36053481
   0.49999183  0.50000833  0.36053499
   0.33343658  0.16671667  0.58284231
   0.33357464  0.66690715  0.58282380
   0.83290684  0.16629376  0.58277739
   0.83325592  0.66675549  0.58280122
  -0.00002042 -0.00004247  0.52885687
  -0.00002815  0.50002029  0.52883785
   0.49999963  0.00000560  0.52885526
   0.50007002  0.50002886  0.52888600
   0.33331492  0.16665637  0.41716378
   0.33332797  0.66666476  0.41715986
   0.83334760  0.16666308  0.41716592
   0.83334925  0.66668504  0.41716864
   0.16241093  0.33121362  0.63711831
   0.16698431  0.83386758  0.63956847
   0.66690693  0.33253500  0.63885167
   0.66644261  0.83310465  0.63953141
   0.44599821  0.38990393  0.72543200
   0.29786515  0.38984745  0.72635691
Direct configuration=     8
   0.16665441  0.33333172  0.38821624
   0.16666400  0.83332841  0.38821590
   0.66667978  0.33333305  0.38821555
   0.66667495  0.83334377  0.38821668
  -0.00035760  0.00015505  0.61153787
  -0.00028919  0.49938954  0.61174377
   0.50027083  0.00019843  0.61170582
   0.50120546  0.50082712  0.61098538
   0.33327693  0.16654788  0.50001121
   0.33323561  0.66671388  0.50001671
   0.83334230  0.16669779  0.50003821
   0.83348308  0.66671115  0.49999290
   0.16668793  0.33332784  0.47107259
   0.16664238  0.83333812  0.47106976
   0.66665964  0.33336509  0.47107869
   0.66668172  0.83330503  0.47107881
   0.00000392  0.00000020  0.36047303
   0.00001618  0.50000980  0.36047170
   0.49999079 -0.00001498  0.36047080
   0.49999381  0.50000769  0.36047108
   0.33349591  0.16672565  0.58286088
   0.33364778  0.66697836  0.58284688
   0.83272928  0.16617296  0.58278020
   0.83322596  0.66675172  0.58282391
  -0.00001786 -0.00005010  0.52888364
  -0.00002770  0.50002742  0.52887234
   0.49998533  0.00000114  0.52888176
   0.50008605  0.50003948  0.52891236
   0.33331717  0.16665660  0.41712174
   0.33332758  0.66666559  0.41711830
   0.83334618  0.16666440  0.41712213
   0.83334910  0.66668300  0.41712587
   0.16226018  0.33114671  0.63707005
   0.16700250  0.83389008  0.63963583
   0.66692490  0.33251598  0.63887447
   0.66641007  0.83304937  0.63959609
   0.44616266  0.39001778  0.72559131
   0.29797795  0.38992526  0.72658954
Direct configuration=     9
   0.16664990  0.33332809  0.38822667
   0.16666611  0.83333119  0.38822569
   0.66668030  0.33332870  0.38822768
   0.66667745  0.83334993  0.38822850
  -0.00044633 -0.00001401  0.61149594
  -0.00031519  0.49948266  0.61169051
   0.50015649  0.00009592  0.61170016
   0.50131360  0.50093268  0.61089107
   0.33324118  0.16643779  0.50000486
   0.33317602  0.66677950  0.50000866
   0.83331948  0.16670212  0.50003809
   0.83360046  0.66675240  0.49996041
   0.16672406  0.33334308  0.47099768
   0.16664423  0.83334243  0.47099044
   0.66663906  0.33338036  0.47100040
   0.66666511  0.83327138  0.47100282
   0.00000332 -0.00000129  0.36034449
   0.00001050  0.50000837  0.36034334
   0.49999317 -0.00001027  0.36034279
   0.49999779  0.50000640  0.36034327
   0.33361458  0.16674361  0.58289803
   0.33379405  0.66712077  0.58289303
   0.83237418  0.16593136  0.58278582
   0.83316604  0.66674420  0.58286929
  -0.00001274 -0.00006536  0.52893716
  -0.00002680  0.50004167  0.52894132
   0.49995672 -0.00000779  0.52893474
   0.50011812  0.50006072  0.52896508
   0.33332167  0.16665707  0.41703767
   0.33332681  0.66666724  0.41703518
   0.83334335  0.16666705  0.41703456
   0.83334879  0.66667893  0.41704034
   0.16195870  0.33101290  0.63697354
   0.16703888  0.83393507  0.63977055
   0.66696084  0.33247795  0.63892005
   0.66634499  0.83293882  0.63972545
   0.44649156  0.39024546  0.72590993
   0.29820354  0.39008088  0.72705479
Direct configuration=    10
   0.16664088  0.33332083  0.38824753
   0.16667033  0.83333673  0.38824526
   0.66668133  0.33332002  0.38825196
   0.66668243  0.83336225  0.38825212
  -0.00062378 -0.00035213  0.61141207
  -0.00036719  0.49966889  0.61158397
   0.49992780 -0.00010909  0.61168884
   0.50152988  0.50114379  0.61070243
   0.33316968  0.16621762  0.49999217
   0.33305686  0.66691075  0.49999257
   0.83327386  0.16671078  0.50003784
   0.83383522  0.66683491  0.49989542
   0.16679631  0.33337357  0.47084787
   0.16664792  0.83335104  0.47083179
   0.66659791  0.33341090  0.47084381
   0.66663189  0.83320407  0.47085084
   0.00000211 -0.00000429  0.36008742
  -0.00000087  0.50000551  0.36008663
   0.49999792 -0.00000084  0.36008677
   0.50000574  0.50000384  0.36008765
   0.33385192  0.16677953  0.58297232
   0.33408658  0.66740560  0.58298535
   0.83166397  0.16544816  0.58279707
   0.83304619  0.66672916  0.58296005
  -0.00000251 -0.00009587  0.52904421
  -0.00002501  0.50007017  0.52907928
   0.49989952 -0.00002565  0.52904071
   0.50018227  0.50010319  0.52907051
   0.33333067  0.16665800  0.41686953
   0.33332527  0.66667055  0.41686893
   0.83333767  0.16667234  0.41685940
   0.83334817  0.66667078  0.41686928
   0.16135573  0.33074528  0.63678052
   0.16711164  0.83402507  0.64004001
   0.66703273  0.33240188  0.63901123
   0.66621484  0.83271771  0.63998417
   0.44714936  0.39070084  0.72654716
   0.29865473  0.39039211  0.72798528
Direct configuration=    11
   0.16662284  0.33330630  0.38828925
   0.16667877  0.83334782  0.38828440
   0.66668339  0.33330266  0.38830052
   0.66669240  0.83338689  0.38829938
  -0.00097868 -0.00102837  0.61124435
  -0.00047118  0.50004137  0.61137089
   0.49947043 -0.00051911  0.61166620
   0.50196243  0.50156602  0.61032515
   0.33302669  0.16577727  0.49996678
   0.33281854  0.66717324  0.49996040
   0.83318262  0.16672811  0.50003735
   0.83430473  0.66699991  0.49976546
   0.16694081  0.33343453  0.47054824
   0.16665531  0.83336826  0.47051450
   0.66651560  0.33347198  0.47053063
   0.66656545  0.83306946  0.47054687
  -0.00000031 -0.00001029  0.35957328
  -0.00002360  0.49999979  0.35957321
   0.50000743  0.00001802  0.35957472
   0.50002164  0.49999871  0.35957641
   0.33432659  0.16685136  0.58312091
   0.33467166  0.66797526  0.58316997
   0.83024354  0.16448175  0.58281956
   0.83280651  0.66669907  0.58314157
   0.00001797 -0.00015689  0.52925831
  -0.00002142  0.50012717  0.52935522
   0.49978511 -0.00006137  0.52925266
   0.50031056  0.50018815  0.52928139
   0.33334867  0.16665985  0.41653325
   0.33332218  0.66667718  0.41653645
   0.83332632  0.16668291  0.41650910
   0.83334694  0.66665449  0.41652717
   0.16014979  0.33021004  0.63639447
   0.16725717  0.83420505  0.64057891
   0.66717649  0.33224975  0.63919359
   0.66595453  0.83227549  0.64050161
   0.44846497  0.39161159  0.72782163
   0.29955710  0.39101457  0.72984628
Direct configuration=    12
   0.16663517  0.33331623  0.38826074
   0.16667300  0.83334024  0.38825765
   0.66668198  0.33331452  0.38826734
   0.66668559  0.83337006  0.38826709
  -0.00073617 -0.00056629  0.61135896
  -0.00040012  0.49978685  0.61151649
   0.49978296 -0.00023894  0.61168167
   0.50166686  0.50127751  0.61058295
   0.33312440  0.16607816  0.49998413
   0.33298139  0.66699388  0.49998238
   0.83324496  0.16671627  0.50003769
   0.83398391  0.66688716  0.49985427
   0.16684207  0.33339287  0.47075298
   0.16665026  0.83335649  0.47073131
   0.66657184  0.33343025  0.47074463
   0.66661085  0.83316144  0.47075457
   0.00000135 -0.00000619  0.35992460
  -0.00000807  0.50000370  0.35992404
   0.50000093  0.00000513  0.35992461
   0.50001077  0.50000222  0.35992575
   0.33400224  0.16680228  0.58301938
   0.33427187  0.66758601  0.58304382
   0.83121413  0.16514210  0.58280419
   0.83297029  0.66671963  0.58301754
   0.00000398 -0.00011520  0.52911201
  -0.00002387  0.50008822  0.52916667
   0.49986328 -0.00003696  0.52910783
   0.50022290  0.50013010  0.52913729
   0.33333637  0.16665858  0.41676303
   0.33332429  0.66667265  0.41676364
   0.83333408  0.16667569  0.41674846
   0.83334778  0.66666562  0.41676094
   0.16097382  0.33057577  0.63665826
   0.16715773  0.83408207  0.64021067
   0.66707826  0.33235370  0.63906898
   0.66613240  0.83257766  0.64014804
   0.44756601  0.39098927  0.72695078
   0.29894050  0.39058924  0.72857465
Direct configuration=    13
   0.16663750  0.33331595  0.38821204
   0.16668338  0.83334716  0.38819754
   0.66667500  0.33330533  0.38821587
   0.66668062  0.83337354  0.38821731
  -0.00079549 -0.00063462  0.61137957
  -0.00045063  0.49978751  0.61152532
   0.49973290 -0.00027652  0.61172528
   0.50166325  0.50128012  0.61059177
   0.33313401  0.16606437  0.49997743
   0.33299691  0.66702383  0.49996866
   0.83320776  0.16669028  0.50003235
   0.83399187  0.66689606  0.49982037
   0.16685822  0.33340580  0.47076343
   0.16664235  0.83334783  0.47073644
   0.66657157  0.33344693  0.47075124
   0.66660432  0.83314207  0.47076205
   0.00000160 -0.00001032  0.35985740
  -0.00000989  0.50000719  0.35985695
   0.49999918  0.00000575  0.35985754
   0.50001469  0.50000284  0.35985931
   0.33406183  0.16677938  0.58303336
   0.33435990  0.66769913  0.58306285
   0.83095229  0.16495127  0.58279436
   0.83296047  0.66673570  0.58303526
   0.00001218 -0.00014265  0.52908567
  -0.00001345  0.50011807  0.52915222
   0.49980604 -0.00006651  0.52907341
   0.50025252  0.50015596  0.52910258
   0.33333413  0.16664649  0.41671232
   0.33331806  0.66668084  0.41671429
   0.83333112  0.16667722  0.41669639
   0.83335994  0.66666877  0.41670994
   0.16090161  0.33055177  0.63663795
   0.16714494  0.83408287  0.64027673
   0.66711455  0.33238000  0.63909188
   0.66610138  0.83248342  0.64021276
   0.44762712  0.39116240  0.72718635
   0.29925626  0.39069278  0.72890379
Direct configuration=    14
   0.16664451  0.33331513  0.38806595
   0.16671449  0.83336790  0.38801720
   0.66665405  0.33327774  0.38806144
   0.66666573  0.83338400  0.38806798
  -0.00097343 -0.00083962  0.61144142
  -0.00060216  0.49978949  0.61155183
   0.49958274 -0.00038927  0.61185612
   0.50165239  0.50128794  0.61061825
   0.33316283  0.16602300  0.49995734
   0.33304346  0.66711368  0.49992750
   0.83309615  0.16661230  0.50001633
   0.83401574  0.66692274  0.49971870
   0.16690668  0.33344458  0.47079481
   0.16661862  0.83332186  0.47075182
   0.66657075  0.33349699  0.47077106
   0.66658474  0.83308396  0.47078450
   0.00000236 -0.00002269  0.35965580
  -0.00001534  0.50001768  0.35965569
   0.49999394  0.00000760  0.35965632
   0.50002643  0.50000470  0.35966002
   0.33424061  0.16671071  0.58307529
   0.33462396  0.66803847  0.58311996
   0.83016677  0.16437876  0.58276486
   0.83293103  0.66678391  0.58308843
   0.00003678 -0.00022500  0.52900663
   0.00001781  0.50020760  0.52910889
   0.49963429 -0.00015517  0.52897015
   0.50034140  0.50023353  0.52899844
   0.33332739  0.16661019  0.41656018
   0.33329937  0.66670542  0.41656626
   0.83332224  0.16668183  0.41654016
   0.83339643  0.66667822  0.41655694
   0.16068499  0.33047977  0.63657702
   0.16710657  0.83408529  0.64047490
   0.66722341  0.33245888  0.63916059
   0.66600832  0.83220068  0.64040694
   0.44781045  0.39168181  0.72789306
   0.30020353  0.39100342  0.72989122
Direct configuration=    15
   0.16665854  0.33331347  0.38777377
   0.16677671  0.83340939  0.38765652
   0.66661214  0.33322256  0.38775260
   0.66663594  0.83340492  0.38776933
  -0.00132931 -0.00124963  0.61156512
  -0.00090523  0.49979344  0.61160485
   0.49928242 -0.00061476  0.61211780
   0.50163068  0.50130358  0.61067120
   0.33322048  0.16594025  0.49991716
   0.33313658  0.66729337  0.49984517
   0.83287292  0.16645636  0.49998428
   0.83406350  0.66697609  0.49951535
   0.16700358  0.33352215  0.47085756
   0.16657115  0.83326990  0.47078259
   0.66656910  0.33359710  0.47081071
   0.66654557  0.83296773  0.47082939
   0.00000389 -0.00004745  0.35925260
  -0.00002626  0.50003864  0.35925316
   0.49998344  0.00001130  0.35925388
   0.50004990  0.50000843  0.35926143
   0.33459815  0.16657335  0.58315916
   0.33515210  0.66871715  0.58323418
   0.82859572  0.16323376  0.58270588
   0.83287214  0.66688034  0.58319477
   0.00008599 -0.00038970  0.52884855
   0.00008034  0.50038667  0.52902221
   0.49929080 -0.00033248  0.52876362
   0.50051916  0.50038869  0.52879016
   0.33331391  0.16653761  0.41625590
   0.33326199  0.66675458  0.41627019
   0.83330447  0.16669104  0.41622770
   0.83346939  0.66669711  0.41625093
   0.16025175  0.33033576  0.63645517
   0.16702983  0.83409012  0.64087125
   0.66744115  0.33261664  0.63929800
   0.66582219  0.83163521  0.64079529
   0.44817712  0.39272061  0.72930650
   0.30209806  0.39162469  0.73186608
Direct configuration=    16
   0.16665920  0.33331343  0.38776080
   0.16677939  0.83341119  0.38764049
   0.66661029  0.33322021  0.38773879
   0.66663463  0.83340575  0.38775593
  -0.00134419 -0.00126586  0.61157082
  -0.00091863  0.49979230  0.61160760
   0.49927053 -0.00062347  0.61212918
   0.50162856  0.50130293  0.61067449
   0.33322333  0.16593807  0.49991536
   0.33314124  0.66730024  0.49984159
   0.83286340  0.16644943  0.49998274
   0.83406417  0.66697791  0.49950685
   0.16700702  0.33352523  0.47086071
   0.16656888  0.83326744  0.47078426
   0.66656953  0.33360122  0.47081284
   0.66654424  0.83296338  0.47083167
   0.00000390 -0.00004851  0.35923602
  -0.00002666  0.50003954  0.35923661
   0.49998300  0.00001137  0.35923730
   0.50005087  0.50000866  0.35924509
   0.33461188  0.16656672  0.58316257
   0.33517327  0.66874518  0.58323876
   0.82853118  0.16318603  0.58270341
   0.83287041  0.66688495  0.58319892
   0.00008810 -0.00039662  0.52884127
   0.00008297  0.50039402  0.52901787
   0.49927556 -0.00034037  0.52875398
   0.50052648  0.50039522  0.52878072
   0.33331329  0.16653441  0.41624323
   0.33326050  0.66675681  0.41625784
   0.83330361  0.16669127  0.41621477
   0.83347251  0.66669804  0.41623815
   0.16023640  0.33033097  0.63645135
   0.16702522  0.83408942  0.64088721
   0.66745074  0.33262452  0.63930368
   0.66581506  0.83161136  0.64081106
   0.44824139  0.39276531  0.72936558
   0.30212871  0.39165031  0.73195048
Direct configuration=    17
   0.16666118  0.33331328  0.38772192
   0.16678743  0.83341657  0.38759239
   0.66660475  0.33321316  0.38769734
   0.66663068  0.83340825  0.38771576
  -0.00138881 -0.00131456  0.61158790
  -0.00095883  0.49978890  0.61161586
   0.49923486 -0.00064958  0.61216331
   0.50162219  0.50130096  0.61068437
   0.33323188  0.16593155  0.49990994
   0.33315524  0.66732085  0.49983085
   0.83283484  0.16642865  0.49997810
   0.83406619  0.66698338  0.49948135
   0.16701734  0.33353447  0.47087017
   0.16656208  0.83326005  0.47078926
   0.66657083  0.33361358  0.47081924
   0.66654027  0.83295031  0.47083853
   0.00000392 -0.00005168  0.35918631
  -0.00002785  0.50004224  0.35918697
   0.49998166  0.00001158  0.35918756
   0.50005377  0.50000934  0.35919606
   0.33465309  0.16654683  0.58317279
   0.33523678  0.66882928  0.58325251
   0.82833757  0.16304283  0.58269599
   0.83286523  0.66689878  0.58321139
   0.00009442 -0.00041737  0.52881945
   0.00009086  0.50041606  0.52900486
   0.49922986 -0.00036404  0.52872507
   0.50054845  0.50041482  0.52875240
   0.33331142  0.16652480  0.41620520
   0.33325601  0.66676350  0.41622078
   0.83330102  0.16669196  0.41617597
   0.83348189  0.66670082  0.41619982
   0.16019036  0.33031662  0.63643990
   0.16701140  0.83408731  0.64093510
   0.66747952  0.33264816  0.63932070
   0.66579368  0.83153981  0.64085839
   0.44843420  0.39289940  0.72954282
   0.30222064  0.39172715  0.73220367
Direct configuration=    18
   0.16666515  0.33331299  0.38764414
   0.16680350  0.83342733  0.38749619
   0.66659366  0.33319906  0.38761445
   0.66662277  0.83341325  0.38763540
  -0.00147807 -0.00141196  0.61162206
  -0.00103923  0.49978209  0.61163237
   0.49916352 -0.00070181  0.61223158
   0.50160944  0.50129704  0.61070412
   0.33324899  0.16591850  0.49989911
   0.33318322  0.66736206  0.49980938
   0.83277773  0.16638709  0.49996882
   0.83407024  0.66699431  0.49943034
   0.16703796  0.33355294  0.47088909
   0.16654848  0.83324526  0.47079926
   0.66657342  0.33363829  0.47083204
   0.66653234  0.83292418  0.47085225
   0.00000397 -0.00005802  0.35908688
  -0.00003024  0.50004764  0.35908767
   0.49997899  0.00001199  0.35908808
   0.50005958  0.50001072  0.35909800
   0.33473549  0.16650706  0.58319323
   0.33536381  0.66899746  0.58328000
   0.82795033  0.16275643  0.58268116
   0.83285487  0.66692643  0.58323634
   0.00010706 -0.00045888  0.52877580
   0.00010663  0.50046015  0.52897884
   0.49913845 -0.00041137  0.52866723
   0.50059239  0.50045403  0.52869577
   0.33330769  0.16650559  0.41612914
   0.33324704  0.66677687  0.41614667
   0.83329585  0.16669333  0.41609838
   0.83350066  0.66670637  0.41612315
   0.16009826  0.33028791  0.63641700
   0.16698376  0.83408310  0.64103088
   0.66753707  0.33269543  0.63935474
   0.66575090  0.83139671  0.64095305
   0.44881981  0.39316758  0.72989732
   0.30240450  0.39188083  0.73271004
Direct configuration=    19
   0.16667308  0.33331240  0.38748859
   0.16683565  0.83344885  0.38730379
   0.66657149  0.33317086  0.38744868
   0.66660697  0.83342325  0.38747470
  -0.00165658 -0.00160676  0.61169039
  -0.00120002  0.49976848  0.61166540
   0.49902084 -0.00080627  0.61236812
   0.50158395  0.50128918  0.61074363
   0.33328321  0.16589241  0.49987745
   0.33323920  0.66744449  0.49976644
   0.83266351  0.16630396  0.49995026
   0.83407834  0.66701617  0.49932834
   0.16707922  0.33358990  0.47092694
   0.16652127  0.83321568  0.47081927
   0.66657859  0.33368772  0.47085763
   0.66651646  0.83287191  0.47087968
   0.00000406 -0.00007071  0.35888802
  -0.00003501  0.50005843  0.35888908
   0.49997364  0.00001283  0.35888913
   0.50007118  0.50001348  0.35890188
   0.33490030  0.16642750  0.58323411
   0.33561787  0.66933383  0.58333498
   0.82717586  0.16218363  0.58265151
   0.83283415  0.66698174  0.58328622
   0.00013234 -0.00054189  0.52868851
   0.00013819  0.50054833  0.52892679
   0.49895563 -0.00050604  0.52855157
   0.50068027  0.50053244  0.52858250
   0.33330022  0.16646717  0.41597703
   0.33322910  0.66680362  0.41599844
   0.83328551  0.16669609  0.41594320
   0.83353818  0.66671748  0.41596980
   0.15991408  0.33023050  0.63637120
   0.16692848  0.83407468  0.64122244
   0.66765217  0.33278998  0.63942283
   0.66566535  0.83111051  0.64114237
   0.44959105  0.39370394  0.73060630
   0.30277222  0.39218820  0.73372280
Direct configuration=    20
   0.16668895  0.33331123  0.38717748
   0.16689994  0.83349189  0.38691899
   0.66652714  0.33311446  0.38711713
   0.66657536  0.83344325  0.38715329
  -0.00201361 -0.00199635  0.61182705
  -0.00152161  0.49974126  0.61173145
   0.49873548 -0.00101518  0.61264121
   0.50153296  0.50127348  0.61082264
   0.33335164  0.16584023  0.49983414
   0.33335116  0.66760934  0.49968055
   0.83243506  0.16613772  0.49991314
   0.83409454  0.66705988  0.49912432
   0.16716174  0.33366382  0.47100263
   0.16646685  0.83315653  0.47085928
   0.66658894  0.33378658  0.47090881
   0.66648472  0.83276737  0.47093454
   0.00000424 -0.00009608  0.35849030
  -0.00004454  0.50008001  0.35849189
   0.49996294  0.00001449  0.35849123
   0.50009440  0.50001898  0.35850963
   0.33522992  0.16626840  0.58331587
   0.33612598  0.67000657  0.58344493
   0.82562693  0.16103803  0.58259220
   0.83279270  0.66709236  0.58338599
   0.00018291 -0.00070792  0.52851393
   0.00020130  0.50072470  0.52882268
   0.49858999 -0.00069537  0.52832024
   0.50085602  0.50068926  0.52835596
   0.33328527  0.16639033  0.41567281
   0.33319322  0.66685713  0.41570198
   0.83326482  0.16670161  0.41563284
   0.83361322  0.66673969  0.41566312
   0.15954571  0.33011567  0.63627960
   0.16681792  0.83405785  0.64160555
   0.66788237  0.33297908  0.63955900
   0.66549425  0.83053811  0.64152101
   0.45113351  0.39477665  0.73202428
   0.30350767  0.39280294  0.73574830
Direct configuration=    21
   0.16672069  0.33330888  0.38655527
   0.16702853  0.83357798  0.38614938
   0.66643844  0.33300165  0.38645402
   0.66651214  0.83348324  0.38651047
  -0.00272765 -0.00277554  0.61210036
  -0.00216479  0.49968681  0.61186357
   0.49816475 -0.00143301  0.61318737
   0.50143099  0.50124207  0.61098066