CeO2                                    
           1
     7.707464    0.000000    0.000000
    -3.853732    6.674860    0.000000
     0.000000    0.000000   28.319031
   Ce   O    C    O 
  12  24   1   1
Direct configuration=     1
   0.16666700  0.33333300  0.38888900
   0.16666700  0.83333300  0.38888900
   0.66666700  0.33333300  0.38888900
   0.66666700  0.83333300  0.38888900
   0.00000000  0.00000000  0.61111100
   0.00000000  0.50000000  0.61111100
   0.50000000  0.00000000  0.61111100
   0.50000000  0.50000000  0.61111100
   0.33333300  0.16666700  0.50000000
   0.33333300  0.66666700  0.50000000
   0.83333300  0.16666700  0.50000000
   0.83333300  0.66666700  0.50000000
   0.16666700  0.33333300  0.47222200
   0.16666700  0.83333300  0.47222200
   0.66666700  0.33333300  0.47222200
   0.66666700  0.83333300  0.47222200
   0.00000000  0.00000000  0.36111100
   0.00000000  0.50000000  0.36111100
   0.50000000  0.00000000  0.36111100
   0.50000000  0.50000000  0.36111100
   0.33333300  0.16666700  0.58333300
   0.33333300  0.66666700  0.58333300
   0.83333300  0.16666700  0.58333300
   0.83333300  0.66666700  0.58333300
   0.00000000  0.00000000  0.52777800
   0.00000000  0.50000000  0.52777800
   0.50000000  0.00000000  0.52777800
   0.50000000  0.50000000  0.52777800
   0.33333300  0.16666700  0.41666700
   0.33333300  0.66666700  0.41666700
   0.83333300  0.16666700  0.41666700
   0.83333300  0.66666700  0.41666700
   0.16666700  0.33333300  0.63888900
   0.16666700  0.83333300  0.63888900
   0.66666700  0.33333300  0.63888900
   0.66666700  0.83333300  0.63888900
   0.16666700  0.33333300  0.72389500
   0.31483500  0.33333300  0.72389500
Direct configuration=     2
   0.16666691  0.33334008  0.38858180
   0.16666482  0.83332537  0.38858235
   0.66667101  0.33333675  0.38858219
   0.66666203  0.83332924  0.38858202
  -0.00071259 -0.00115814  0.61121459
  -0.00086208  0.50018335  0.61141057
   0.50017928  0.00029340  0.61149333
   0.50153712  0.50052588  0.61132717
   0.33335288  0.16666405  0.49997136
   0.33332633  0.66667532  0.49997192
   0.83331542  0.16667620  0.49998013
   0.83333350  0.66664798  0.49999106
   0.16667593  0.33333493  0.47180707
   0.16666418  0.83333531  0.47180760
   0.66666056  0.33334004  0.47180637
   0.66666458  0.83332202  0.47180676
  -0.00000100  0.00000075  0.36091744
  -0.00000054  0.49999864  0.36091786
   0.50000032 -0.00000059  0.36091740
   0.49999956  0.50000082  0.36091775
   0.33317207  0.16678784  0.58314650
   0.33327806  0.66646987  0.58314900
   0.83348266  0.16666880  0.58313018
   0.83333922  0.66673455  0.58311366
   0.00001693  0.00000332  0.52823118
   0.00001299  0.50001405  0.52821384
   0.49998101 -0.00000756  0.52820171
   0.49998704  0.49999092  0.52822885
   0.33333422  0.16666959  0.41689700
   0.33333121  0.66666358  0.41689608
   0.83333468  0.16666932  0.41689410
   0.83333138  0.66666405  0.41689616
   0.16527665  0.33315415  0.63818962
   0.16661583  0.83339270  0.63904027
   0.66670957  0.33338632  0.63890701
   0.66669178  0.83325395  0.63903640
   0.16175178  0.33353533  0.72430791
   0.32105676  0.33344381  0.72472379
Direct configuration=     3
   0.16666698  0.33333429  0.38883283
   0.16666660  0.83333160  0.38883293
   0.66666773  0.33333369  0.38883290
   0.66666609  0.83333231  0.38883287
  -0.00013029 -0.00021176  0.61112994
  -0.00015762  0.50003352  0.61116577
   0.50003278  0.00005364  0.61118091
   0.50028105  0.50009615  0.61115053
   0.33333663  0.16666646  0.49999476
   0.33333178  0.66666852  0.49999487
   0.83332979  0.16666868  0.49999637
   0.83333309  0.66666352  0.49999837
   0.16666863  0.33333335  0.47214613
   0.16666648  0.83333342  0.47214623
   0.66666582  0.33333429  0.47214601
   0.66666656  0.83333099  0.47214608
  -0.00000018  0.00000014  0.36107561
  -0.00000010  0.49999975  0.36107569
   0.50000006 -0.00000011  0.36107560
   0.49999992  0.50000015  0.36107567
   0.33330357  0.16668910  0.58329890
   0.33332295  0.66663096  0.58329936
   0.83336036  0.16666733  0.58329592
   0.83333414  0.66667935  0.58329290
   0.00000310  0.00000061  0.52786086
   0.00000237  0.50000257  0.52785769
   0.49999653 -0.00000138  0.52785547
   0.49999763  0.49999834  0.52786043
   0.33333322  0.16666747  0.41670905
   0.33333267  0.66666638  0.41670889
   0.83333331  0.16666742  0.41670852
   0.83333270  0.66666646  0.41670890
   0.16641279  0.33330030  0.63876112
   0.16665764  0.83334392  0.63891666
   0.66667478  0.33334275  0.63889229
   0.66667153  0.83331855  0.63891595
   0.16576830  0.33336999  0.72397050
   0.31597259  0.33335326  0.72404654
Direct configuration=     4
   0.16666658  0.33333795  0.38854179
   0.16666589  0.83332858  0.38854112
   0.66667023  0.33333587  0.38854088
   0.66666424  0.83333173  0.38854108
  -0.00081276 -0.00130998  0.61122356
  -0.00095580  0.50020303  0.61144500
   0.50018714  0.00030939  0.61153984
   0.50172667  0.50060037  0.61135847
   0.33335802  0.16666379  0.49997199
   0.33332188  0.66667668  0.49997810
   0.83331161  0.16668168  0.49998325
   0.83333673  0.66664175  0.49997937
   0.16667388  0.33333103  0.47172980
   0.16665974  0.83333628  0.47172959
   0.66666222  0.33334265  0.47172896
   0.66667028  0.83332333  0.47172977
  -0.00000009  0.00000030  0.36087126
  -0.00000039  0.49999978  0.36087152
   0.49999964 -0.00000013  0.36087101
   0.49999990  0.50000030  0.36087139
   0.33315397  0.16680548  0.58312275
   0.33328589  0.66645996  0.58312623
   0.83346685  0.16664496  0.58309937
   0.83333923  0.66674600  0.58308284
   0.00001112 -0.00000739  0.52831105
   0.00000236  0.50001618  0.52829316
   0.49998282 -0.00000255  0.52827875
   0.50000202  0.49999457  0.52830962
   0.33333371  0.16666843  0.41692318
   0.33333094  0.66666443  0.41692223
   0.83333468  0.16666934  0.41692091
   0.83333280  0.66666478  0.41692280
   0.16497005  0.33311263  0.63809113
   0.16658588  0.83339138  0.63907607
   0.66673835  0.33341304  0.63891862
   0.66671297  0.83323827  0.63907231
   0.16674043  0.33358460  0.72436211
   0.31637229  0.33346754  0.72490909
Direct configuration=     5
   0.16666623  0.33334114  0.38828850
   0.16666527  0.83332595  0.38828716
   0.66667240  0.33333777  0.38828672
   0.66666263  0.83333122  0.38828713
  -0.00140672 -0.00226579  0.61130503
  -0.00165046  0.50035056  0.61168802
   0.50032148  0.00053197  0.61185222
   0.50298482  0.50103920  0.61153945
   0.33337664  0.16666146  0.49995217
   0.33331327  0.66668377  0.49996351
   0.83329580  0.16669300  0.49997184
   0.83333989  0.66662280  0.49996285
   0.16667845  0.33332900  0.47136745
   0.16665386  0.83333876  0.47136698
   0.66665909  0.33334992  0.47136600
   0.66667352  0.83331665  0.47136745
  -0.00000001  0.00000045  0.36069341
  -0.00000065  0.49999980  0.36069383
   0.49999928 -0.00000016  0.36069296
   0.49999988  0.50000042  0.36069361
   0.33302378  0.16690678  0.58296945
   0.33325363  0.66631114  0.58297556
   0.83355953  0.16662549  0.58292832
   0.83334366  0.66680400  0.58290003
   0.00001811 -0.00001434  0.52870286
   0.00000234  0.50002803  0.52867216
   0.49997089 -0.00000357  0.52864714
   0.50000584  0.49999129  0.52870055
   0.33333413  0.16666927  0.41710953
   0.33332944  0.66666274  0.41710790
   0.83333588  0.16667101  0.41710576
   0.83333289  0.66666331  0.41710896
   0.16371441  0.33294931  0.63750803
   0.16652341  0.83343268  0.63921480
   0.66679368  0.33347421  0.63894153
   0.66674904  0.83316840  0.63920840
   0.16758650  0.33377137  0.72470294
   0.31672016  0.33356699  0.72565979
Direct configuration=     6
   0.16666059  0.33333706  0.38829260
   0.16666817  0.83332827  0.38828757
   0.66667173  0.33333134  0.38828612
   0.66666380  0.83333715  0.38828951
  -0.00109279 -0.00153567  0.61124144
  -0.00094683  0.50010424  0.61165006
   0.50004572  0.00014768  0.61177415
   0.50208098  0.50084335  0.61144736
   0.33341704  0.16666064  0.50002828
   0.33328344  0.66669274  0.50009332
   0.83326295  0.16673035  0.50004803
   0.83335564  0.66657211  0.49986506
   0.16667693  0.33330236  0.47118540
   0.16658928  0.83333246  0.47118507
   0.66667386  0.33340452  0.47118480
   0.66672299  0.83329358  0.47118896
  -0.00000100 -0.00000502  0.36048720
  -0.00000365  0.50000311  0.36048693
   0.49999776  0.00000061  0.36048623
   0.50000496  0.50000135  0.36048703
   0.33326889  0.16686331  0.58304701
   0.33359945  0.66673634  0.58304577
   0.83286982  0.16622901  0.58294104
   0.83321432  0.66675080  0.58293849
  -0.00009103 -0.00024666  0.52881654
  -0.00016627  0.50010698  0.52880545
   0.49996782  0.00005135  0.52880863
   0.50028188  0.50007700  0.52885234
   0.33333960  0.16666557  0.41699137
   0.33332944  0.66666891  0.41698697
   0.83332876  0.16667136  0.41698761
   0.83333423  0.66665989  0.41699810
   0.16319652  0.33284711  0.63730852
   0.16642688  0.83347289  0.63941371
   0.66677351  0.33360281  0.63909875
   0.66678242  0.83298904  0.63941297
   0.16855076  0.33396384  0.72504000
   0.31676344  0.33367420  0.72630160
Direct configuration=     7
   0.16665795  0.33333516  0.38829452
   0.16666953  0.83332935  0.38828777
   0.66667141  0.33332833  0.38828584
   0.66666435  0.83333993  0.38829063
  -0.00094600 -0.00119426  0.61121170
  -0.00061781  0.49998906  0.61163231
   0.49991678 -0.00003201  0.61173764
   0.50165834  0.50075177  0.61140430
   0.33343593  0.16666025  0.50006387
   0.33326950  0.66669693  0.50015402
   0.83324759  0.16674781  0.50008366
   0.83336300  0.66654840  0.49981933
   0.16667621  0.33328991  0.47110027
   0.16655909  0.83332951  0.47110001
   0.66668077  0.33343005  0.47110007
   0.66674613  0.83328279  0.47110550
  -0.00000146 -0.00000758  0.36039078
  -0.00000506  0.50000466  0.36039019
   0.49999705  0.00000096  0.36038957
   0.50000733  0.50000179  0.36039043
   0.33338350  0.16684298  0.58308328
   0.33376116  0.66693516  0.58307859
   0.83254731  0.16604362  0.58294699
   0.83315384  0.66672592  0.58295647
  -0.00014207 -0.00035529  0.52886970
  -0.00024512  0.50014390  0.52886778
   0.49996639  0.00007704  0.52888414
   0.50041096  0.50011708  0.52892332
   0.33334216  0.16666385  0.41693612
   0.33332945  0.66667180  0.41693042
   0.83332543  0.16667153  0.41693236
   0.83333486  0.66665828  0.41694627
   0.16295435  0.33279932  0.63721523
   0.16638173  0.83349170  0.63950671
   0.66676408  0.33366295  0.63917227
   0.66679802  0.83290517  0.63950863
   0.16900165  0.33405383  0.72519760
   0.31678368  0.33372433  0.72660172
Direct configuration=     8
   0.16665767  0.33333619  0.38828649
   0.16668054  0.83333358  0.38827688
   0.66666632  0.33331741  0.38827383
   0.66665775  0.83334475  0.38828115
  -0.00086322 -0.00097824  0.61119405
  -0.00041605  0.49991672  0.61162104
   0.49982239 -0.00015311  0.61172024
   0.50137397  0.50069171  0.61137424
   0.33344662  0.16665849  0.50008271
   0.33326203  0.66670211  0.50018739
   0.83323360  0.16675512  0.50010197
   0.83336937  0.66653515  0.49978342
   0.16667922  0.33328471  0.47105468
   0.16654579  0.83332950  0.47105093
   0.66668090  0.33344187  0.47105034
   0.66675514  0.83327529  0.47105790
  -0.00000278 -0.00001153  0.36031191
  -0.00000789  0.50000648  0.36031092
   0.49999678  0.00000199  0.36031016
   0.50001141  0.50000266  0.36031140
   0.33347816  0.16681742  0.58311681
   0.33390126  0.66711543  0.58310872
   0.83225531  0.16587376  0.58295341
   0.83310608  0.66670862  0.58297558
  -0.00017275 -0.00042765  0.52889380
  -0.00029217  0.50017027  0.52890195
   0.49995250  0.00008905  0.52892615
   0.50049611  0.50014401  0.52896222
   0.33334553  0.16666205  0.41688665
   0.33332938  0.66667524  0.41688119
   0.83332116  0.16667197  0.41688268
   0.83333538  0.66665591  0.41689581
   0.16280774  0.33276699  0.63715574
   0.16635250  0.83350721  0.63958216
   0.66675041  0.33370830  0.63923361
   0.66680112  0.83283270  0.63958752
   0.16882793  0.33413594  0.72534027
   0.31735676  0.33376791  0.72686409
Direct configuration=     9
   0.16665748  0.33333690  0.38828101
   0.16668806  0.83333647  0.38826944
   0.66666285  0.33330996  0.38826564
   0.66665325  0.83334805  0.38827469
  -0.00080672 -0.00083083  0.61118200
  -0.00027835  0.49986735  0.61161335
   0.49975799 -0.00023576  0.61170836
   0.50117991  0.50065072  0.61135373
   0.33345392  0.16665729  0.50009557
   0.33325694  0.66670565  0.50021016
   0.83322405  0.16676011  0.50011446
   0.83337372  0.66652611  0.49975891
   0.16668128  0.33328116  0.47102357
   0.16653672  0.83332949  0.47101744
   0.66668099  0.33344993  0.47101641
   0.66676128  0.83327018  0.47102542
  -0.00000368 -0.00001422  0.36025808
  -0.00000983  0.50000773  0.36025682
   0.49999660  0.00000268  0.36025597
   0.50001419  0.50000325  0.36025746
   0.33354276  0.16679998  0.58313970
   0.33399687  0.66723845  0.58312928
   0.83205604  0.16575784  0.58295779
   0.83307349  0.66669681  0.58298863
  -0.00019368 -0.00047702  0.52891024
  -0.00032428  0.50018827  0.52892527
   0.49994302  0.00009725  0.52895482
   0.50055421  0.50016239  0.52898876
   0.33334782  0.16666082  0.41685289
   0.33332933  0.66667759  0.41684759
   0.83331824  0.16667228  0.41684878
   0.83333574  0.66665428  0.41686137
   0.16270769  0.33274494  0.63711514
   0.16633255  0.83351779  0.63963365
   0.66674107  0.33373925  0.63927547
   0.66680324  0.83278325  0.63964136
   0.16870939  0.33419198  0.72543763
   0.31774784  0.33379765  0.72704314
Direct configuration=    10
   0.16665969  0.33334051  0.38825932
   0.16670502  0.83334246  0.38824458
   0.66665460  0.33329485  0.38823936
   0.66664171  0.83335321  0.38825129
  -0.00083884 -0.00085550  0.61118672
  -0.00030830  0.49987513  0.61161838
   0.49973700 -0.00024359  0.61172671
   0.50117872  0.50065660  0.61135481
   0.33345264  0.16665438  0.50008895
   0.33325976  0.66671111  0.50020094
   0.83321499  0.16675317  0.50010658
   0.83337650  0.66652873  0.49974633
   0.16668714  0.33328576  0.47103277
   0.16654596  0.83333214  0.47102032
   0.66667415  0.33344324  0.47101791
   0.66675175  0.83326872  0.47102920
  -0.00000528 -0.00001757  0.36022310
  -0.00001261  0.50000897  0.36022143
   0.49999687  0.00000377  0.36022011
   0.50001789  0.50000422  0.36022232
   0.33357701  0.16678026  0.58315459
   0.33406086  0.66732870  0.58314221
   0.83190484  0.16566563  0.58295860
   0.83305728  0.66669584  0.58299780
  -0.00019033 -0.00048267  0.52889854
  -0.00031855  0.50019335  0.52892096
   0.49991845  0.00008950  0.52894839
   0.50055956  0.50016492  0.52898305
   0.33335051  0.16665969  0.41683031
   0.33332904  0.66668004  0.41682678
   0.83331497  0.16667299  0.41682582
   0.83333600  0.66665212  0.41683340
   0.16269368  0.33273811  0.63710802
   0.16632774  0.83352254  0.63966490
   0.66673108  0.33375527  0.63930187
   0.66679352  0.83274757  0.63967582
   0.16882773  0.33423930  0.72552536
   0.31783922  0.33382253  0.72718243
Direct configuration=    11
   0.16666632  0.33335133  0.38819426
   0.16675588  0.83336045  0.38817000
   0.66662986  0.33324952  0.38816054
   0.66660710  0.83336872  0.38818108
  -0.00093520 -0.00092953  0.61120089
  -0.00039813  0.49989848  0.61163347
   0.49967402 -0.00026710  0.61178178
   0.50117514  0.50067422  0.61135803
   0.33344879  0.16664565  0.50006908
   0.33326823  0.66672749  0.50017328
   0.83318780  0.16673234  0.50008295
   0.83338486  0.66653659  0.49970858
   0.16670474  0.33329956  0.47106038
   0.16657370  0.83334011  0.47102896
   0.66665362  0.33342317  0.47102243
   0.66672313  0.83326433  0.47104052
  -0.00001008 -0.00002761  0.36011816
  -0.00002093  0.50001269  0.36011526
   0.49999767  0.00000702  0.36011254
   0.50002900  0.50000713  0.36011692
   0.33367976  0.16672112  0.58319927
   0.33425283  0.66759945  0.58318098
   0.83145126  0.16538900  0.58296101
   0.83300865  0.66669292  0.58302532
  -0.00018027 -0.00049960  0.52886346
  -0.00030136  0.50020860  0.52890804
   0.49984475  0.00006624  0.52892910
   0.50057562  0.50017253  0.52896593
   0.33335858  0.16665630  0.41676255
   0.33332817  0.66668738  0.41676437
   0.83330517  0.16667515  0.41675696
   0.83333680  0.66664561  0.41674952
   0.16265167  0.33271764  0.63708668
   0.16631331  0.83353681  0.63975864
   0.66670110  0.33380333  0.63938105
   0.66676433  0.83264054  0.63977920
   0.16918277  0.33438126  0.72578852
   0.31811335  0.33389715  0.72760029
Direct configuration=    12
   0.16667958  0.33337298  0.38806412
   0.16685759  0.83339643  0.38802085
   0.66658037  0.33315887  0.38800290
   0.66653788  0.83339973  0.38804067
  -0.00112792 -0.00107759  0.61122923
  -0.00057779  0.49994519  0.61166366
   0.49954808 -0.00031412  0.61189191
   0.50116797  0.50070947  0.61136447
   0.33344109  0.16662819  0.50002933
   0.33328517  0.66676026  0.50011797
   0.83313343  0.16669068  0.50003569
   0.83340157  0.66655230  0.49963309
   0.16673994  0.33332715  0.47111561
   0.16662916  0.83335604  0.47104624
   0.66661256  0.33338304  0.47103147
   0.66666590  0.83325557  0.47106316
  -0.00001967 -0.00004769  0.35990827
  -0.00003757  0.50002013  0.35990291
   0.49999927  0.00001353  0.35989739
   0.50005121  0.50001294  0.35990611
   0.33388526  0.16660283  0.58328862
   0.33463677  0.66814097  0.58325853
   0.83054409  0.16483573  0.58296584
   0.83291139  0.66668709  0.58308035
  -0.00016015 -0.00053347  0.52879329
  -0.00026699  0.50023911  0.52888220
   0.49969734  0.00001972  0.52889053
   0.50060772  0.50018774  0.52893168
   0.33337471  0.16664952  0.41662703
   0.33332642  0.66670206  0.41663955
   0.83328555  0.16667946  0.41661923
   0.83333839  0.66663260  0.41658174
   0.16256766  0.33267671  0.63704401
   0.16628445  0.83356534  0.63994612
   0.66664114  0.33389947  0.63953941
   0.66670597  0.83242647  0.63998596
   0.16989286  0.33466517  0.72631484
   0.31866160  0.33404640  0.72843600
Direct configuration=    13
   0.16670609  0.33341628  0.38780386
   0.16706103  0.83346839  0.38772253
   0.66648140  0.33297756  0.38768762
   0.66639945  0.83346174  0.38775984
  -0.00151336 -0.00137370  0.61128590
  -0.00093712  0.50003859  0.61172404
   0.49929620 -0.00040817  0.61211218
   0.50115364  0.50077998  0.61137736
   0.33342569  0.16659326  0.49994984
   0.33331906  0.66682579  0.50000734
   0.83302470  0.16660735  0.49994117
   0.83343499  0.66658373  0.49948211
   0.16681033  0.33338233  0.47122606
   0.16674009  0.83338789  0.47108081
   0.66653045  0.33330277  0.47104954
   0.66655143  0.83323803  0.47110844
  -0.00003886 -0.00008786  0.35948849
  -0.00007087  0.50003500  0.35947822
   0.50000246  0.00002656  0.35946710
   0.50009564  0.50002456  0.35948450
   0.33429627  0.16636625  0.58346733
   0.33540466  0.66922399  0.58341364
   0.82872976  0.16372920  0.58297550
   0.83271686  0.66667542  0.58319043
  -0.00011990 -0.00060121  0.52865295
  -0.00019823  0.50030012  0.52883053
   0.49940252 -0.00007331  0.52881337
   0.50067193  0.50021817  0.52886318
   0.33340698  0.16663596  0.41635599
   0.33332292  0.66673143  0.41638990
   0.83324631  0.16668808  0.41634377
   0.83334158  0.66660657  0.41624619
   0.16239962  0.33259483  0.63695865
   0.16622673  0.83362240  0.64032107
   0.66652121  0.33409173  0.63985614
   0.66658924  0.83199835  0.64039948
   0.17131302  0.33523301  0.72736750
   0.31975810  0.33434491  0.73010743
Direct configuration=    14
   0.16675911  0.33350288  0.38728333
   0.16746791  0.83361231  0.38712590
   0.66628344  0.33261494  0.38705705
   0.66612257  0.83358578  0.38719819
  -0.00228424 -0.00196593  0.61139925
  -0.00165577  0.50022541  0.61184480
   0.49879243 -0.00059625  0.61255272
   0.50112499  0.50092099  0.61140314
   0.33339489  0.16652341  0.49979086
   0.33338682  0.66695685  0.49978608
   0.83280722  0.16644071  0.49975212
   0.83350183  0.66664659  0.49918015
   0.16695111  0.33349270  0.47144697
   0.16696195  0.83345161  0.47114996
   0.66636622  0.33314224  0.47108569
   0.66632249  0.83320297  0.47119900
  -0.00007722 -0.00016819  0.35864894
  -0.00013745  0.50006476  0.35862883
   0.50000886  0.00005260  0.35860651
   0.50018451  0.50004781  0.35864126
   0.33511827  0.16589309  0.58382474
   0.33694043  0.67139003  0.58372384
   0.82510109  0.16151614  0.58299481
   0.83232781  0.66665209  0.58341057
  -0.00003942 -0.00073668  0.52837227
  -0.00006073  0.50042213  0.52872718
   0.49881288 -0.00025938  0.52865905
   0.50080036  0.50027903  0.52872617
   0.33347151  0.16660884  0.41581392
   0.33331592  0.66679016  0.41589061
   0.83316784  0.16670531  0.41579285
   0.83334795  0.66655453  0.41557510
   0.16206355  0.33243109  0.63678794
   0.16611129  0.83373652  0.64107099
   0.66628137  0.33447626  0.64048959
   0.66635577  0.83114209  0.64122651
   0.17415334  0.33636869  0.72947280
   0.32195111  0.33494191  0.73345029
Direct configuration=    15
   0.16673165  0.33342245  0.38714134
   0.16722286  0.83355728  0.38697357
   0.66637049  0.33282363  0.38690733
   0.66629863  0.83350904  0.38704108
  -0.00255342 -0.00226007  0.61151904
  -0.00200981  0.50026920  0.61194398
   0.49872007 -0.00053162  0.61273206
   0.50132190  0.50099590  0.61154455
   0.33353759  0.16643037  0.49985962
   0.33351461  0.66720540  0.49985863
   0.83247240  0.16628970  0.49980259
   0.83346712  0.66660265  0.49920506
   0.16692644  0.33352049  0.47137127
   0.16689490  0.83337286  0.47103960
   0.66642038  0.33318117  0.47099127
   0.66631322  0.83319335  0.47110140
  -0.00005025 -0.00009140  0.35849764
  -0.00006972  0.50003600  0.35846716
   0.49999807  0.00001696  0.35842471
   0.50009023  0.50003141  0.35848304
   0.33490072  0.16574443  0.58380434
   0.33677316  0.67138019  0.58370946
   0.82506302  0.16144624  0.58298999
   0.83247173  0.66675875  0.58337136
  -0.00001047 -0.00066797  0.52831982
  -0.00000417  0.50038192  0.52870243
   0.49856890 -0.00033435  0.52847892
   0.50070405  0.50025382  0.52863299
   0.33344552  0.16660743  0.41566436
   0.33331455  0.66677846  0.41574053
   0.83318041  0.16669375  0.41564951
   0.83334720  0.66657259  0.41543937
   0.16202490  0.33236032  0.63685883
   0.16566867  0.83348172  0.64115539
   0.66653818  0.33480471  0.64058666
   0.66653256  0.83101759  0.64134908
   0.17558412  0.33669037  0.73013604
   0.32178159  0.33512130  0.73429596
Direct configuration=    16
   0.16673524  0.33343297  0.38715992
   0.16725493  0.83356448  0.38699350
   0.66635910  0.33279632  0.38692693
   0.66627559  0.83351908  0.38706164
  -0.00251819 -0.00222158  0.61150336
  -0.00196348  0.50026347  0.61193100
   0.49872954 -0.00054008  0.61270859
   0.50129613  0.50098610  0.61152605
   0.33351892  0.16644254  0.49985062
   0.33349789  0.66717288  0.49984913
   0.83251622  0.16630946  0.49979598
   0.83347166  0.66660840  0.49920180
   0.16692967  0.33351685  0.47138117
   0.16690367  0.83338316  0.47105404
   0.66641329  0.33317607  0.47100362
   0.66631443  0.83319460  0.47111417
  -0.00005378 -0.00010145  0.35851744
  -0.00007858  0.50003977  0.35848831
   0.49999948  0.00002162  0.35844850
   0.50010257  0.50003356  0.35850375
   0.33492919  0.16576389  0.58380701
   0.33679505  0.67138148  0.58371134
   0.82506800  0.16145539  0.58299062
   0.83245290  0.66674479  0.58337649
  -0.00001426 -0.00067696  0.52832668
  -0.00001157  0.50038718  0.52870567
   0.49860083 -0.00032454  0.52850249
   0.50071666  0.50025712  0.52864518
   0.33344892  0.16660761  0.41568393
   0.33331473  0.66677999  0.41576017
   0.83317876  0.16669526  0.41566827
   0.83334730  0.66657023  0.41545713
   0.16202996  0.33236958  0.63684955
   0.16572660  0.83351506  0.64114435
   0.66650457  0.33476172  0.64057396
   0.66650943  0.83103388  0.64133304
   0.17539689  0.33664828  0.73004925
   0.32180377  0.33509782  0.73418530
Direct configuration=    17
   0.16671749  0.33338244  0.38709439
   0.16709135  0.83352440  0.38692164
   0.66642028  0.33293691  0.38685777
   0.66639216  0.83346719  0.38698434
  -0.00264592 -0.00236458  0.61157083
  -0.00214089  0.50027579  0.61198434
   0.49869950 -0.00049769  0.61279483
   0.50140154  0.50102176  0.61161027
   0.33359699  0.16639120  0.49989052
   0.33356452  0.66730813  0.49989446
   0.83232939  0.16622734  0.49982553
   0.83345033  0.66658089  0.49922302
   0.16690268  0.33352690  0.47131977
   0.16683913  0.83332397  0.47097783
   0.66646270  0.33321558  0.47094019
   0.66632587  0.83319018  0.47104553
  -0.00003540 -0.00005021  0.35845888
  -0.00003366  0.50002002  0.35842382
   0.49999384 -0.00000118  0.35837186
   0.50004113  0.50002260  0.35844106
   0.33475192  0.16568800  0.58378100
   0.33661023  0.67127006  0.58369225
   0.82522434  0.16152258  0.58299370
   0.83256116  0.66681189  0.58334261
  -0.00000414 -0.00062861  0.52831362
   0.00001113  0.50035231  0.52870135
   0.49847510 -0.00036035  0.52839983
   0.50065260  0.50023893  0.52859941
   0.33343113  0.16660790  0.41561464
   0.33331679  0.66677154  0.41568783
   0.83318872  0.16668523  0.41560350
   0.83334550  0.66658417  0.41540392
   0.16203266  0.33233352  0.63690970
   0.16543908  0.83333970  0.64116180
   0.66668270  0.33495711  0.64060681
   0.66663453  0.83099497  0.64137150
   0.17551786  0.33681354  0.73037146
   0.32225765  0.33518187  0.73460418
Direct configuration=    18
   0.16669138  0.33330811  0.38699799
   0.16685071  0.83346543  0.38681592
   0.66651028  0.33314372  0.38675603
   0.66656365  0.83339085  0.38687062
  -0.00283382 -0.00257494  0.61167009
  -0.00240188  0.50029391  0.61206281
   0.49865531 -0.00043533  0.61292170
   0.50155662  0.50107424  0.61173417
   0.33371184  0.16631567  0.49994921
   0.33366253  0.66750711  0.49996115
   0.83205455  0.16610654  0.49986900
   0.83341896  0.66654041  0.49925423
   0.16686298  0.33354168  0.47122945
   0.16674418  0.83323690  0.47086571
   0.66653539  0.33327369  0.47084687
   0.66634270  0.83318368  0.47094454
  -0.00000837  0.00002517  0.35837272
   0.00003242  0.49999097  0.35832894
   0.49998554 -0.00003473  0.35825912
   0.49995074  0.50000648  0.35834883
   0.33449114  0.16557636  0.58374275
   0.33633834  0.67110615  0.58366416
   0.82545433  0.16162143  0.58299824
   0.83272044  0.66691061  0.58329278
   0.00001076 -0.00055748  0.52829439
   0.00004452  0.50030101  0.52869498
   0.49829013 -0.00041303  0.52824880
   0.50055837  0.50021217  0.52853208
   0.33340496  0.16660833  0.41551270
   0.33331982  0.66675912  0.41558140
   0.83320337  0.16667046  0.41550822
   0.83334284  0.66660469  0.41532564
   0.16203662  0.33228048  0.63699819
   0.16501612  0.83308172  0.64118748
   0.66694475  0.33524453  0.64065514
   0.66681857  0.83093772  0.64142807
   0.17569581  0.33705666  0.73084547
   0.32292536  0.33530550  0.73522040
Direct configuration=    19
   0.16668402  0.33328715  0.38697080
   0.16678286  0.83344880  0.38678611
   0.66653566  0.33320204  0.38672734
   0.66661201  0.83336932  0.38683855
  -0.00288680 -0.00263426  0.61169808
  -0.00247547  0.50029902  0.61208494
   0.49864285 -0.00041774  0.61295748
   0.50160035  0.50108903  0.61176910
   0.33374423  0.16629437  0.49996576
   0.33369017  0.66756322  0.49997995
   0.83197705  0.16607248  0.49988125
   0.83341012  0.66652900  0.49926303
   0.16685178  0.33354585  0.47120398
   0.16671740  0.83321235  0.47083410
   0.66655589  0.33329008  0.47082056
   0.66634745  0.83318184  0.47091607
  -0.00000074  0.00004642  0.35834843
   0.00005105  0.49998278  0.35830218
   0.49998320 -0.00004419  0.35822732
   0.49992526  0.50000194  0.35832282
   0.33441761  0.16554488  0.58373196
   0.33626167  0.67105993  0.58365624
   0.82551919  0.16164931  0.58299952
   0.83276535  0.66693844  0.58327873
   0.00001496 -0.00053742  0.52828897
   0.00005394  0.50028655  0.52869319
   0.49823797 -0.00042789  0.52820622
   0.50053180  0.50020462  0.52851309
   0.33339758  0.16660845  0.41548396
   0.33332067  0.66675562  0.41555139
   0.83320750  0.16666630  0.41548135
   0.83334210  0.66661047  0.41530357
   0.16203774  0.33226552  0.63702314
   0.16489686  0.83300898  0.64119473
   0.66701864  0.33532558  0.64066877
   0.66687047  0.83092157  0.64144402
   0.17574599  0.33712522  0.73097913
   0.32311365  0.33534037  0.73539417
Direct configuration=    20
   0.16667775  0.33327319  0.38694643
   0.16671708  0.83342682  0.38674738
   0.66656232  0.33325994  0.38668904
   0.66665288  0.83334539  0.38679332
  -0.00291002 -0.00264817  0.61172249
  -0.00251327  0.50028140  0.61209709
   0.49861214 -0.00041017  0.61297091
   0.50159378  0.50108522  0.61180500
   0.33373279  0.16628483  0.49994775
   0.33368085  0.66757242  0.49996690
   0.83193371  0.16605175  0.49985863
   0.83340626  0.66652420  0.49925037
   0.16681114  0.33354098  0.47114945
   0.16662704  0.83315006  0.47077464
   0.66661430  0.33334395  0.47077385
   0.66638080  0.83317973  0.47086336
   0.00000744  0.00007581  0.35832593
   0.00007413  0.49996885  0.35827701
   0.49998244 -0.00005558  0.35819475
   0.49989108  0.49999592  0.35829811
   0.33427919  0.16549552  0.58372177
   0.33607902  0.67092047  0.58365464
   0.82574527  0.16177603  0.58302814
   0.83283429  0.66697441  0.58325782
  -0.00000037 -0.00050766  0.52831234
   0.00003799  0.50024583  0.52871536
   0.49817800 -0.00043582  0.52815887
   0.50049225  0.50019225  0.52851091
   0.33338774  0.16660904  0.41545461
   0.33332874  0.66675385  0.41551641
   0.83320797  0.16665280  0.41545574
   0.83333456  0.66662022  0.41529066
   0.16208705  0.33225157  0.63710216
   0.16467710  0.83286610  0.64118294
   0.66714678  0.33545017  0.64067597
   0.66695753  0.83092194  0.64144496
   0.17602830  0.33723397  0.73121089
   0.32316592  0.33539873  0.73564342
Direct configuration=    21
   0.16666553  0.33324596  0.38689890
   0.16658880  0.83338395  0.38667183
   0.66661433  0.33337287  0.38661432
   0.66673260  0.83329873  0.38670509
  -0.00295530 -0.00267529  0.61177009
  -0.00258699  0.50024703  0.61212078
   0.49855226 -0.00039541  0.61299711
   0.50158097  0.50107779  0.61187501