CeO2                                    
           1
     7.707464    0.000000    0.000000
    -3.853732    6.674860    0.000000
     0.000000    0.000000   28.319031
   Ce   O    C    O 
  12  24   1   1
Direct configuration=     1
   0.16666700  0.33333300  0.38888900
   0.16666700  0.83333300  0.38888900
   0.66666700  0.33333300  0.38888900
   0.66666700  0.83333300  0.38888900
   0.00000000  0.00000000  0.61111100
   0.00000000  0.50000000  0.61111100
   0.50000000  0.00000000  0.61111100
   0.50000000  0.50000000  0.61111100
   0.33333300  0.16666700  0.50000000
   0.33333300  0.66666700  0.50000000
   0.83333300  0.16666700  0.50000000
   0.83333300  0.66666700  0.50000000
   0.16666700  0.33333300  0.47222200
   0.16666700  0.83333300  0.47222200
   0.66666700  0.33333300  0.47222200
   0.66666700  0.83333300  0.47222200
   0.00000000  0.00000000  0.36111100
   0.00000000  0.50000000  0.36111100
   0.50000000  0.00000000  0.36111100
   0.50000000  0.50000000  0.36111100
   0.33333300  0.16666700  0.58333300
   0.33333300  0.66666700  0.58333300
   0.83333300  0.16666700  0.58333300
   0.83333300  0.66666700  0.58333300
   0.00000000  0.00000000  0.52777800
   0.00000000  0.50000000  0.52777800
   0.50000000  0.00000000  0.52777800
   0.50000000  0.50000000  0.52777800
   0.33333300  0.16666700  0.41666700
   0.33333300  0.66666700  0.41666700
   0.83333300  0.16666700  0.41666700
   0.83333300  0.66666700  0.41666700
   0.16666700  0.33333300  0.63888900
   0.16666700  0.83333300  0.63888900
   0.66666700  0.33333300  0.63888900
   0.66666700  0.83333300  0.63888900
   0.27777800  0.00000000  0.72389500
   0.19223300  0.82891000  0.72389500
Direct configuration=     2
   0.16666640  0.33333354  0.38860404
   0.16666611  0.83333270  0.38860370
   0.66666734  0.33333341  0.38860410
   0.66666788  0.83333327  0.38860372
  -0.00018029  0.00020234  0.61117000
  -0.00018641  0.49974002  0.61131895
   0.50056246  0.00036606  0.61113585
   0.49992060  0.49977103  0.61145533
   0.33333322  0.16667104  0.50000311
   0.33331763  0.66665562  0.50000223
   0.83334450  0.16668456  0.50000464
   0.83333759  0.66665808  0.50000539
   0.16666390  0.33333283  0.47179466
   0.16666863  0.83333395  0.47179349
   0.66666807  0.33333139  0.47179476
   0.66666648  0.83333674  0.47179694
   0.00000581  0.00000276  0.36090576
   0.00000049  0.50000116  0.36090632
   0.49999626  0.00000221  0.36090576
   0.49999728  0.49999513  0.36090582
   0.33334463  0.16666117  0.58312431
   0.33339649  0.66669605  0.58313240
   0.83330775  0.16662514  0.58311743
   0.83326873  0.66667219  0.58312874
  -0.00001072  0.00000423  0.52821492
  -0.00000311  0.49998876  0.52820391
   0.50001382  0.00000238  0.52822105
   0.50000054  0.50000586  0.52819776
   0.33333330  0.16666649  0.41688284
   0.33332818  0.66666491  0.41688438
   0.83333537  0.16667175  0.41688423
   0.83333565  0.66666475  0.41688407
   0.16654675  0.33327773  0.63905274
   0.16587947  0.83311458  0.63738305
   0.66683567  0.33334011  0.63901703
   0.66668451  0.83342052  0.63912614
   0.27803765  0.00051873  0.72431236
   0.19259237  0.82849681  0.72570806
Direct configuration=     3
   0.16666559  0.33333427  0.38822116
   0.16666490  0.83333230  0.38822035
   0.66666779  0.33333395  0.38822130
   0.66666907  0.83333362  0.38822040
  -0.00042254  0.00047421  0.61124928
  -0.00043687  0.49939071  0.61159836
   0.50131821  0.00085792  0.61116925
   0.49981391  0.49946337  0.61191800
   0.33333351  0.16667646  0.50000728
   0.33329699  0.66664034  0.50000522
   0.83335995  0.16670816  0.50001088
   0.83334376  0.66664609  0.50001264
   0.16665973  0.33333261  0.47122046
   0.16667082  0.83333523  0.47121771
   0.66666951  0.33332922  0.47122069
   0.66666578  0.83334177  0.47122581
   0.00001363  0.00000646  0.36062999
   0.00000115  0.50000271  0.36063130
   0.49999122  0.00000518  0.36062998
   0.49999362  0.49998860  0.36063014
   0.33336027  0.16665333  0.58284390
   0.33348179  0.66673508  0.58286286
   0.83327383  0.16656890  0.58282777
   0.83318237  0.66667916  0.58285429
  -0.00002513  0.00000991  0.52880199
  -0.00000728  0.49997365  0.52877618
   0.50003239  0.00000559  0.52881636
   0.50000126  0.50001373  0.52876178
   0.33333370  0.16666581  0.41717285
   0.33332171  0.66666211  0.41717646
   0.83333855  0.16667813  0.41717611
   0.83333921  0.66666174  0.41717573
   0.16638518  0.33320347  0.63927274
   0.16482130  0.83282111  0.63535957
   0.66706232  0.33334966  0.63918907
   0.66670803  0.83353811  0.63944478
   0.27838654  0.00121572  0.72487315
   0.19307523  0.82794162  0.72814420
Direct configuration=     4
   0.16666647  0.33333524  0.38814569
   0.16666402  0.83333199  0.38814469
   0.66666785  0.33333552  0.38814588
   0.66666911  0.83333256  0.38814522
  -0.00052314  0.00051053  0.61123473
  -0.00048470  0.49932331  0.61162400
   0.50148642  0.00093156  0.61114140
   0.49979789  0.49943375  0.61200921
   0.33334614  0.16671382  0.50001168
   0.33329153  0.66660651  0.50001636
   0.83337881  0.16673212  0.49999574
   0.83331803  0.66661978  0.50002512
   0.16664889  0.33332336  0.47106953
   0.16667688  0.83334293  0.47106735
   0.66666925  0.33331699  0.47107010
   0.66667079  0.83335711  0.47107577
   0.00001442  0.00000742  0.36052809
   0.00000109  0.50000255  0.36052947
   0.49999111  0.00000590  0.36052811
   0.49999315  0.49998798  0.36052827
   0.33345727  0.16680704  0.58278964
   0.33358258  0.66668285  0.58281591
   0.83325436  0.16655579  0.58277105
   0.83297587  0.66658481  0.58279874
  -0.00003551  0.00002988  0.52894156
  -0.00002101  0.49994403  0.52891914
   0.50006444  0.00002565  0.52896007
   0.49999455  0.50000514  0.52890522
   0.33333402  0.16666635  0.41720623
   0.33332116  0.66666162  0.41720950
   0.83333912  0.16667914  0.41721053
   0.83333931  0.66666134  0.41720857
   0.16634521  0.33319258  0.63935998
   0.16458797  0.83278101  0.63487476
   0.66712649  0.33334612  0.63926288
   0.66670180  0.83357153  0.63955770
   0.27760051 -0.00037019  0.72507770
   0.19409885  0.82953438  0.72888442
Direct configuration=     5
   0.16666648  0.33333525  0.38814506
   0.16666402  0.83333199  0.38814407
   0.66666785  0.33333553  0.38814526
   0.66666911  0.83333255  0.38814461
  -0.00052397  0.00051083  0.61123461
  -0.00048510  0.49932275  0.61162421
   0.50148781  0.00093217  0.61114117
   0.49979776  0.49943350  0.61200996
   0.33334625  0.16671412  0.50001171
   0.33329148  0.66660624  0.50001645
   0.83337897  0.16673232  0.49999562
   0.83331781  0.66661956  0.50002523
   0.16664880  0.33332328  0.47106828
   0.16667693  0.83334299  0.47106611
   0.66666925  0.33331689  0.47106886
   0.66667083  0.83335724  0.47107453
   0.00001442  0.00000743  0.36052725
   0.00000108  0.50000255  0.36052863
   0.49999111  0.00000590  0.36052727
   0.49999315  0.49998797  0.36052743
   0.33345806  0.16680831  0.58278919
   0.33358341  0.66668242  0.58281552
   0.83325420  0.16655568  0.58277058
   0.83297417  0.66658403  0.58279828
  -0.00003559  0.00003004  0.52894271
  -0.00002112  0.49994379  0.52892032
   0.50006471  0.00002582  0.52896125
   0.49999449  0.50000507  0.52890640
   0.33333402  0.16666636  0.41720651
   0.33332115  0.66666161  0.41720977
   0.83333912  0.16667915  0.41721082
   0.83333931  0.66666133  0.41720884
   0.16634488  0.33319249  0.63936070
   0.16458605  0.83278068  0.63487076
   0.66712702  0.33334609  0.63926349
   0.66670175  0.83357180  0.63955863
   0.27759404 -0.00038325  0.72507939
   0.19410728  0.82954750  0.72889052
Direct configuration=     6
   0.16666894  0.33333699  0.38815894
   0.16666320  0.83333123  0.38815868
   0.66666728  0.33333779  0.38815929
   0.66666786  0.83332961  0.38815946
  -0.00057729  0.00048953  0.61119660
  -0.00048207  0.49932509  0.61157704
   0.50148877  0.00089673  0.61110059
   0.49980492  0.49947515  0.61199285
   0.33336259  0.16675953  0.50001496
   0.33329298  0.66656941  0.50002748
   0.83339635  0.16675316  0.49997406
   0.83328191  0.66659038  0.50003672
   0.16663636  0.33331244  0.47104726
   0.16668332  0.83335109  0.47104637
   0.66666911  0.33330281  0.47104819
   0.66667685  0.83337425  0.47105387
   0.00001301  0.00000782  0.36047961
   0.00000052  0.50000124  0.36048085
   0.49999268  0.00000608  0.36047966
   0.49999329  0.49998872  0.36047972
   0.33357558  0.16700618  0.58280096
   0.33368680  0.66660436  0.58283343
   0.83323996  0.16655448  0.58278177
   0.83273600  0.66646299  0.58280669
  -0.00004570  0.00005341  0.52894548
  -0.00003691  0.49991042  0.52893192
   0.50010039  0.00004929  0.52896646
   0.49998494  0.49999254  0.52891940
   0.33333442  0.16666781  0.41716479
   0.33332216  0.66666097  0.41716726
   0.83333911  0.16667877  0.41716971
   0.83333773  0.66666105  0.41716618
   0.16633633  0.33320076  0.63940515
   0.16459488  0.83280291  0.63484548
   0.66714864  0.33334054  0.63930482
   0.66668872  0.83358296  0.63960738
   0.27757550 -0.00040782  0.72513589
   0.19419185  0.82954934  0.72916503
Direct configuration=     7
   0.16667631  0.33334221  0.38820056
   0.16666075  0.83332895  0.38820251
   0.66666555  0.33334456  0.38820141
   0.66666411  0.83332078  0.38820401
  -0.00073724  0.00042562  0.61108258
  -0.00047300  0.49933212  0.61143551
   0.50149166  0.00079040  0.61097884
   0.49982640  0.49960011  0.61194152
   0.33341163  0.16689575  0.50002468
   0.33329747  0.66645894  0.50006057
   0.83344852  0.16681567  0.49990940
   0.83317420  0.66650284  0.50007119
   0.16659903  0.33327991  0.47098417
   0.16670251  0.83337538  0.47098714
   0.66666869  0.33326058  0.47098620
   0.66669489  0.83342526  0.47099186
   0.00000877  0.00000900  0.36033669
  -0.00000116  0.49999733  0.36033752
   0.49999739  0.00000660  0.36033685
   0.49999371  0.49999095  0.36033659
   0.33392811  0.16759979  0.58283625
   0.33399699  0.66637019  0.58288717
   0.83319723  0.16655088  0.58281532
   0.83202147  0.66609986  0.58283191
  -0.00007603  0.00012349  0.52895380
  -0.00008429  0.49981030  0.52896673
   0.50020743  0.00011969  0.52898208
   0.49995630  0.49995493  0.52895841
   0.33333560  0.16667218  0.41703962
   0.33332520  0.66665903  0.41703974
   0.83333907  0.16667765  0.41704640
   0.83333300  0.66666020  0.41703820
   0.16631069  0.33322557  0.63953852
   0.16462140  0.83286960  0.63476964
   0.66721351  0.33332388  0.63942881
   0.66664964  0.83361644  0.63975365
   0.27751990 -0.00048154  0.72530541
   0.19444556  0.82955488  0.72998856
Direct configuration=     8
   0.16669105  0.33335265  0.38828380
   0.16665586  0.83332439  0.38829017
   0.66666210  0.33335811  0.38828565
   0.66665663  0.83330314  0.38829311
  -0.00105716  0.00029781  0.61085453
  -0.00045485  0.49934619  0.61115244
   0.50149744  0.00057774  0.61073535
   0.49986937  0.49985002  0.61183886
   0.33350971  0.16716818  0.50004413
   0.33330646  0.66623800  0.50012676
   0.83355284  0.16694071  0.49978006
   0.83295879  0.66632776  0.50014013
   0.16652438  0.33321484  0.47085801
   0.16674090  0.83342396  0.47086869
   0.66666785  0.33317613  0.47086222
   0.66673097  0.83352729  0.47086785
   0.00000030  0.00001136  0.36005083
  -0.00000454  0.49998951  0.36005085
   0.50000681  0.00000766  0.36005123
   0.49999455  0.49999543  0.36005032
   0.33463318  0.16878701  0.58290685
   0.33461736  0.66590184  0.58299463
   0.83311178  0.16654367  0.58288242
   0.83059243  0.66537360  0.58288236
  -0.00013668  0.00026367  0.52897043
  -0.00017905  0.49961007  0.52903635
   0.50042152  0.00026050  0.52901331
   0.49989902  0.49987973  0.52903641
   0.33333796  0.16668091  0.41678929
   0.33333127  0.66665515  0.41678468
   0.83333899  0.16667539  0.41679979
   0.83332353  0.66665850  0.41678223
   0.16625941  0.33327518  0.63980526
   0.16467443  0.83300297  0.63461796
   0.66734326  0.33329055  0.63967679
   0.66657147  0.83368339  0.64004618
   0.27740869 -0.00062896  0.72564444
   0.19495299  0.82956596  0.73163562
Direct configuration=     9
   0.16669755  0.33335726  0.38832049
   0.16665370  0.83332238  0.38832881
   0.66666057  0.33336408  0.38832278
   0.66665333  0.83329536  0.38833238
  -0.00119817  0.00024147  0.61075402
  -0.00044685  0.49935238  0.61102768
   0.50149998  0.00048400  0.61062803
   0.49988831  0.49996017  0.61179361
   0.33355293  0.16728825  0.50005270
   0.33331042  0.66614062  0.50015593
   0.83359883  0.16699582  0.49972306
   0.83286384  0.66625059  0.50017052
   0.16649148  0.33318616  0.47080241
   0.16675781  0.83344538  0.47081648
   0.66666749  0.33313890  0.47080757
   0.66674688  0.83357227  0.47081319
  -0.00000344  0.00001239  0.35992484
  -0.00000603  0.49998607  0.35992450
   0.50001096  0.00000812  0.35992534
   0.49999493  0.49999740  0.35992415
   0.33494395  0.16931028  0.58293796
   0.33489080  0.66569541  0.58304200
   0.83307412  0.16654050  0.58291200
   0.82996256  0.66505349  0.58290460
  -0.00016342  0.00032545  0.52897776
  -0.00022082  0.49952181  0.52906703
   0.50051589  0.00032256  0.52902708
   0.49987377  0.49984658  0.52907080
   0.33333900  0.16668475  0.41667896
   0.33333394  0.66665344  0.41667226
   0.83333895  0.16667440  0.41669109
   0.83331936  0.66665775  0.41666941
   0.16623680  0.33329705  0.63992283
   0.16469781  0.83306176  0.63455110
   0.66740044  0.33327586  0.63978609
   0.66653702  0.83371290  0.64017511
   0.27735968 -0.00069394  0.72579387
   0.19517664  0.82957085  0.73236158
Direct configuration=    10
   0.16671512  0.33336813  0.38828199
   0.16665251  0.83331991  0.38830100
   0.66665371  0.33337483  0.38828586
   0.66664362  0.83327670  0.38829932
  -0.00125499  0.00026819  0.61074422
  -0.00049339  0.49927970  0.61100462
   0.50152582  0.00049644  0.61061900
   0.49987643  0.49996990  0.61182237
   0.33358006  0.16734133  0.50004361
   0.33334019  0.66611562  0.50014784
   0.83359918  0.16699576  0.49967126
   0.83280331  0.66622250  0.50016214
   0.16647786  0.33318199  0.47080956
   0.16676210  0.83344571  0.47083256
   0.66667390  0.33312945  0.47081537
   0.66674984  0.83358640  0.47082247
  -0.00000667  0.00001674  0.35985869
  -0.00000935  0.49997857  0.35985797
   0.50001804  0.00001179  0.35985931
   0.49999409  0.49999695  0.35985724
   0.33512324  0.16963196  0.58294204
   0.33505793  0.66556883  0.58305450
   0.83305773  0.16653130  0.58291396
   0.82957871  0.66487175  0.58290300
  -0.00017815  0.00034827  0.52894430
  -0.00022928  0.49949313  0.52904668
   0.50055439  0.00033909  0.52899317
   0.49985148  0.49983659  0.52903620
   0.33334347  0.16669759  0.41662256
   0.33333557  0.66664391  0.41661733
   0.83334276  0.16667863  0.41663302
   0.83330919  0.66665062  0.41661403
   0.16617237  0.33329345  0.63997758
   0.16473926  0.83310221  0.63457258
   0.66747058  0.33325752  0.63983810
   0.66654233  0.83377445  0.64023888
   0.27710287 -0.00119285  0.72590887
   0.19553518  0.83000694  0.73283680
Direct configuration=    11
   0.16673621  0.33338118  0.38823579
   0.16665108  0.83331695  0.38826763
   0.66664548  0.33338773  0.38824155
   0.66663196  0.83325431  0.38825964
  -0.00132318  0.00030026  0.61073245
  -0.00054924  0.49919247  0.61097694
   0.50155683  0.00051135  0.61060817
   0.49986217  0.49998158  0.61185688
   0.33361262  0.16740501  0.50003271
   0.33337590  0.66608560  0.50013812
   0.83359961  0.16699569  0.49960909
   0.83273067  0.66618880  0.50015208
   0.16646151  0.33317698  0.47081815
   0.16676724  0.83344611  0.47085186
   0.66668160  0.33311810  0.47082473
   0.66675339  0.83360337  0.47083361
  -0.00001055  0.00002196  0.35977931
  -0.00001334  0.49996958  0.35977814
   0.50002655  0.00001620  0.35978008
   0.49999308  0.49999642  0.35977694
   0.33533840  0.17001801  0.58294693
   0.33525851  0.66541691  0.58306951
   0.83303807  0.16652027  0.58291632
   0.82911805  0.66465363  0.58290108
  -0.00019584  0.00037565  0.52890414
  -0.00023943  0.49945870  0.52902226
   0.50060060  0.00035892  0.52895246
   0.49982473  0.49982460  0.52899468
   0.33334884  0.16671298  0.41655488
   0.33333753  0.66663248  0.41655141
   0.83334733  0.16668371  0.41656333
   0.83329699  0.66664206  0.41654757
   0.16609504  0.33328912  0.64004330
   0.16478900  0.83315076  0.63459835
   0.66755476  0.33323551  0.63990052
   0.66654870  0.83384832  0.64031541
   0.27679468 -0.00179159  0.72604688
   0.19596545  0.83053030  0.73340709
Direct configuration=    12
   0.16677840  0.33340727  0.38814340
   0.16664821  0.83331103  0.38820089
   0.66662901  0.33341353  0.38815294
   0.66660866  0.83320953  0.38818029
  -0.00145956  0.00036439  0.61070892
  -0.00066094  0.49901801  0.61092159
   0.50161884  0.00054119  0.61058651
   0.49983366  0.50000494  0.61192591
   0.33367773  0.16753239  0.50001090
   0.33344734  0.66602558  0.50011869
   0.83360047  0.16699555  0.49948475
   0.83258538  0.66612138  0.50013196
   0.16642882  0.33316697  0.47083532
   0.16677752  0.83344691  0.47089044
   0.66669699  0.33309541  0.47084344
   0.66676049  0.83363730  0.47085588
  -0.00001832  0.00003239  0.35962054
  -0.00002132  0.49995160  0.35961847
   0.50004355  0.00002502  0.35962162
   0.49999106  0.49999534  0.35961634
   0.33576873  0.17079009  0.58295672
   0.33565966  0.66511309  0.58309954
   0.83299876  0.16649821  0.58292103
   0.82819673  0.66421740  0.58289724
  -0.00023120  0.00043040  0.52882383
  -0.00025974  0.49938985  0.52897341
   0.50069302  0.00039858  0.52887106
   0.49977122  0.49980062  0.52891164
   0.33335958  0.16674378  0.41641952
   0.33334144  0.66660961  0.41641956
   0.83335648  0.16669387  0.41642396
   0.83327259  0.66662495  0.41641465
   0.16594039  0.33328047  0.64017472
   0.16488848  0.83324786  0.63464990
   0.66772311  0.33319149  0.64002537
   0.66656144  0.83399605  0.64046846
   0.27617831 -0.00298907  0.72632289
   0.19682601  0.83157700  0.73454768
Direct configuration=    13
   0.16678652  0.33341215  0.38812176
   0.16664788  0.83331014  0.38818464
   0.66662564  0.33341821  0.38813202
   0.66660417  0.83320107  0.38816109
  -0.00147898  0.00038117  0.61071026
  -0.00068455  0.49898184  0.61091794
   0.50163172  0.00055356  0.61058870
   0.49982640  0.50000295  0.61194321
   0.33368846  0.16755132  0.50000593
   0.33346161  0.66601907  0.50011308
   0.83359797  0.16699234  0.49946283
   0.83256122  0.66611211  0.50012609
   0.16642401  0.33316669  0.47084105
   0.16677841  0.83344562  0.47090054
   0.66670033  0.33309323  0.47084945
   0.66676104  0.83364145  0.47086260
  -0.00001971  0.00003434  0.35959495
  -0.00002283  0.49994826  0.35959268
   0.50004670  0.00002671  0.35959610
   0.49999071  0.49999509  0.35959026
   0.33583700  0.17091525  0.58295682
   0.33572471  0.66506418  0.58310271
   0.83299297  0.16649336  0.58291990
   0.82804799  0.66414899  0.58289512
  -0.00023658  0.00043763  0.52880755
  -0.00026118  0.49938164  0.52896199
   0.50070570  0.00040271  0.52885408
   0.49976143  0.49979766  0.52889226
   0.33336182  0.16674998  0.41639812
   0.33334224  0.66660504  0.41639898
   0.83335827  0.16669594  0.41640152
   0.83326766  0.66662145  0.41639389
   0.16590711  0.33327600  0.64019478
   0.16490606  0.83326311  0.63466406
   0.66775609  0.33318266  0.64004459
   0.66656768  0.83402711  0.64049249
   0.27613878 -0.00305611  0.72636351
   0.19690651  0.83161604  0.73475244
Direct configuration=    14
   0.16681088  0.33342677  0.38805684
   0.16664690  0.83330748  0.38813590
   0.66661550  0.33343227  0.38806925
   0.66659070  0.83317571  0.38810349
  -0.00153724  0.00043152  0.61071427
  -0.00075538  0.49887334  0.61090697
   0.50167036  0.00059066  0.61059530
   0.49980463  0.49999699  0.61199511
   0.33372065  0.16760812  0.49999103
   0.33350443  0.66599955  0.50009626
   0.83359048  0.16698272  0.49939708
   0.83248874  0.66608430  0.50010848
   0.16640959  0.33316586  0.47085823
   0.16678109  0.83344176  0.47093082
   0.66671036  0.33308668  0.47086749
   0.66676271  0.83365391  0.47088274
  -0.00002388  0.00004018  0.35951817
  -0.00002737  0.49993826  0.35951533
   0.50005614  0.00003180  0.35951951
   0.49998963  0.49999433  0.35951203
   0.33604181  0.17129074  0.58295713
   0.33591986  0.66491747  0.58311224
   0.83297562  0.16647878  0.58291651
   0.82760177  0.66394376  0.58288875
  -0.00025273  0.00045930  0.52875873
  -0.00026552  0.49935701  0.52892773
   0.50074377  0.00041509  0.52880314
   0.49973207  0.49978879  0.52883409
   0.33336854  0.16676859  0.41633390
   0.33334463  0.66659134  0.41633724
   0.83336365  0.16670213  0.41633421
   0.83325288  0.66661094  0.41633163
   0.16580727  0.33326260  0.64025496
   0.16495878  0.83330887  0.63470654
   0.66785501  0.33315617  0.64010226
   0.66658641  0.83412030  0.64056455
   0.27602020 -0.00325721  0.72648538
   0.19714804  0.83173314  0.73536670
Direct configuration=    15
   0.16685962  0.33345601  0.38792700
   0.16664494  0.83330216  0.38803840
   0.66659524  0.33346037  0.38794372
   0.66656377  0.83312499  0.38798830
  -0.00165377  0.00053222  0.61072230
  -0.00089703  0.49865635  0.61088504
   0.50174765  0.00066488  0.61060848
   0.49976108  0.49998505  0.61209890
   0.33378503  0.16772170  0.49996124
   0.33359005  0.66596050  0.50006262
   0.83357550  0.16696347  0.49926558
   0.83234379  0.66602869  0.50007324
   0.16638074  0.33316420  0.47089259
   0.16678645  0.83343403  0.47099139
   0.66673042  0.33307357  0.47090356
   0.66676605  0.83367882  0.47092302
  -0.00003222  0.00005185  0.35936460
  -0.00003644  0.49991826  0.35936063
   0.50007503  0.00004197  0.35936635
   0.49998749  0.49999282  0.35935555
   0.33645142  0.17204170  0.58295775
   0.33631017  0.66462405  0.58313128
   0.83294091  0.16644963  0.58290974
   0.82670931  0.66353330  0.58287602
  -0.00028502  0.00050264  0.52866108
  -0.00027419  0.49930774  0.52885921
   0.50081991  0.00043985  0.52870126
   0.49967334  0.49977105  0.52871776
   0.33338198  0.16680581  0.41620547
   0.33334942  0.66656392  0.41621377
   0.83337440  0.16671451  0.41619959
   0.83322331  0.66658993  0.41620711
   0.16560759  0.33323580  0.64037532
   0.16506423  0.83340038  0.63479149
   0.66805286  0.33310318  0.64021761
   0.66662387  0.83430668  0.64070869
   0.27578304 -0.00365943  0.72672912
   0.19763109  0.83196734  0.73659523
Direct configuration=    16
   0.16695708  0.33351450  0.38766732
   0.16664101  0.83329151  0.38784341
   0.66655472  0.33351659  0.38769265
   0.66650990  0.83302354  0.38775791
  -0.00188682  0.00073362  0.61073834
  -0.00118033  0.49822235  0.61084117
   0.50190222  0.00081330  0.61063484
   0.49967398  0.49996119  0.61230649
   0.33391378  0.16794887  0.49990165
   0.33376130  0.66588240  0.49999535
   0.83354553  0.16692497  0.49900258
   0.83205389  0.66591745  0.50000278
   0.16632304  0.33316087  0.47096132
   0.16679717  0.83341857  0.47111252
   0.66677053  0.33304737  0.47097571
   0.66677272  0.83372865  0.47100358
  -0.00004891  0.00007520  0.35905747
  -0.00005458  0.49987827  0.35905121
   0.50011281  0.00006232  0.35906002
   0.49998320  0.49998980  0.35904260
   0.33727064  0.17354363  0.58295899
   0.33709078  0.66403720  0.58316938
   0.83287149  0.16639133  0.58289619
   0.82492441  0.66271237  0.58285056
  -0.00034960  0.00058932  0.52846578
  -0.00029153  0.49920921  0.52872217
   0.50097217  0.00048938  0.52849749
   0.49955588  0.49973556  0.52848510
   0.33340887  0.16688025  0.41594860
   0.33335899  0.66650908  0.41596682
   0.83339591  0.16673928  0.41593034
   0.83316417  0.66654791  0.41595806
   0.16520823  0.33318220  0.64061603
   0.16527512  0.83358340  0.63496139
   0.66844855  0.33299720  0.64044830
   0.66669879  0.83467944  0.64099696
   0.27530871 -0.00446385  0.72721660
   0.19859720  0.83243574  0.73905229
Direct configuration=    17
   0.16715200  0.33363148  0.38714797
   0.16663315  0.83327023  0.38745342
   0.66647366  0.33362902  0.38719051
   0.66640217  0.83282064  0.38729714
  -0.00235293  0.00113643  0.61077043
  -0.00174694  0.49735435  0.61075344
   0.50221136  0.00111015  0.61068757
   0.49949978  0.49991346  0.61272167
   0.33417129  0.16840320  0.49978248
   0.33410379  0.66572620  0.49986080
   0.83348560  0.16684797  0.49847657
   0.83147408  0.66569498  0.49986185
   0.16620764  0.33315421  0.47109878
   0.16681860  0.83338766  0.47135479
   0.66685076  0.33299497  0.47111999
   0.66678607  0.83382830  0.47116470
  -0.00008228  0.00012190  0.35844320
  -0.00009087  0.49979827  0.35843239
   0.50018836  0.00010301  0.35844737
   0.49997462  0.49998376  0.35841669
   0.33890908  0.17654749  0.58296148
   0.33865200  0.66286351  0.58324558
   0.83273265  0.16627474  0.58286909
   0.82135460  0.66107052  0.58279965
  -0.00047876  0.00076268  0.52807519
  -0.00032621  0.49901215  0.52844810
   0.50127671  0.00058844  0.52808995
   0.49932097  0.49966459  0.52801978
   0.33346264  0.16702913  0.41543486
   0.33337813  0.66639941  0.41547293
   0.83343893  0.16678882  0.41539185
   0.83304589  0.66646386  0.41545997
   0.16440951  0.33307500  0.64109747
   0.16569690  0.83394943  0.63530120
   0.66923993  0.33278525  0.64090967
   0.66684863  0.83542496  0.64157350
   0.27436006 -0.00607271  0.72819156
   0.20052941  0.83337254  0.74396641
Direct configuration=    18
   0.16703494  0.33356123  0.38745987
   0.16663787  0.83328301  0.38768763
   0.66652234  0.33356150  0.38749207
   0.66646687  0.83294249  0.38757386
  -0.00207300  0.00089452  0.61075116
  -0.00140666  0.49787564  0.61080613
   0.50202571  0.00093187  0.61065591
   0.49960439  0.49994213  0.61247233
   0.33401664  0.16813035  0.49985405
   0.33389810  0.66582001  0.49994160
   0.83352159  0.16689422  0.49879247
   0.83182229  0.66582859  0.49994649
   0.16627695  0.33315821  0.47101623
   0.16680573  0.83340623  0.47120929
   0.66680258  0.33302644  0.47103334
   0.66677805  0.83376845  0.47106794
  -0.00006224  0.00009386  0.35881211
  -0.00006908  0.49984631  0.35880403
   0.50014299  0.00007857  0.35881530
   0.49997977  0.49998739  0.35879259
   0.33792510  0.17474349  0.58295999
   0.33771439  0.66356839  0.58319982
   0.83281603  0.16634476  0.58288536
   0.82349849  0.66205656  0.58283023
  -0.00040119  0.00065856  0.52830976
  -0.00030538  0.49913050  0.52861270
   0.50109382  0.00052895  0.52833470
   0.49946205  0.49970721  0.52829924
   0.33343035  0.16693972  0.41574339
   0.33336664  0.66646528  0.41576954
   0.83341309  0.16675907  0.41571525
   0.83311692  0.66651434  0.41575911
   0.16488919  0.33313938  0.64080834
   0.16544359  0.83372960  0.63509712
   0.66876466  0.33291254  0.64063259
   0.66675864  0.83497723  0.64122725
   0.27492978 -0.00510649  0.72760604
   0.19936900  0.83280993  0.74101518
Direct configuration=    19
   0.16704778  0.33356894  0.38742566
   0.16663735  0.83328161  0.38766194
   0.66651700  0.33356890  0.38745899
   0.66645977  0.83292913  0.38754351
  -0.00210371  0.00092105  0.61075327
  -0.00144398  0.49781845  0.61080035
   0.50204607  0.00095143  0.61065938
   0.49959292  0.49993898  0.61249968
   0.33403361  0.16816028  0.49984620
   0.33392067  0.66580972  0.49993274
   0.83351765  0.16688914  0.49875781
   0.83178409  0.66581393  0.49993720
   0.16626934  0.33315777  0.47102528
   0.16680714  0.83340419  0.47122525
   0.66680787  0.33302299  0.47104285
   0.66677893  0.83377502  0.47107855
  -0.00006443  0.00009693  0.35877164
  -0.00007147  0.49984104  0.35876327
   0.50014796  0.00008125  0.35877494
   0.49997921  0.49998699  0.35875135
   0.33803303  0.17494138  0.58296015
   0.33781725  0.66349106  0.58320484
   0.83280688  0.16633708  0.58288358
   0.82326331  0.66194839  0.58282687
  -0.00040970  0.00066998  0.52828403
  -0.00030767  0.49911752  0.52859464
   0.50111388  0.00053547  0.52830786
   0.49944657  0.49970254  0.52826858
   0.33343389  0.16694953  0.41570955
   0.33336790  0.66645805  0.41573700
   0.83341593  0.16676233  0.41567977
   0.83310913  0.66650880  0.41572629
   0.16483657  0.33313232  0.64084005
   0.16547138  0.83375372  0.63511951
   0.66881680  0.33289858  0.64066298
   0.66676851  0.83502634  0.64126524
   0.27486729 -0.00521248  0.72767027
   0.19949629  0.83287165  0.74133891
Direct configuration=    20
   0.16706364  0.33357548  0.38733994
   0.16664088  0.83328523  0.38759788
   0.66650616  0.33357301  0.38737408
   0.66645080  0.83291558  0.38746141
  -0.00211736  0.00098802  0.61079289
  -0.00151686  0.49771571  0.61083516
   0.50208603  0.00102241  0.61070539
   0.49956091  0.49990432  0.61257160
   0.33404672  0.16817223  0.49982734
   0.33395291  0.66582246  0.49990873
   0.83349847  0.16686626  0.49871896
   0.83174808  0.66581216  0.49991049
   0.16626378  0.33316794  0.47102782
   0.16679809  0.83338857  0.47124566
   0.66682244  0.33303626  0.47104673
   0.66677693  0.83376884  0.47108329
  -0.00006841  0.00009842  0.35872045
  -0.00007430  0.49983660  0.35871081
   0.50015357  0.00008345  0.35872421
   0.49998038  0.49998858  0.35869502
   0.33809619  0.17508743  0.58295385
   0.33789542  0.66344308  0.58319931
   0.83280235  0.16631090  0.58286527
   0.82309781  0.66190112  0.58281704
  -0.00040674  0.00065953  0.52824809
  -0.00029176  0.49914209  0.52856072
   0.50109859  0.00051804  0.52826535
   0.49941707  0.49970409  0.52818542
   0.33344358  0.16697096  0.41566811
   0.33337492  0.66644557  0.41569828
   0.83341838  0.16676582  0.41563149
   0.83308962  0.66649736  0.41568794
   0.16466329  0.33306914  0.64086569
   0.16549273  0.83376914  0.63518461
   0.66894116  0.33285267  0.64069042
   0.66684299  0.83518455  0.64130259
   0.27461811 -0.00569896  0.72780157
   0.19984444  0.83326594  0.74186641
Direct configuration=    21
   0.16711125  0.33359511  0.38708277
   0.16665147  0.83329609  0.38740571
   0.66647362  0.33358532  0.38711934
   0.66642390  0.83287495  0.38721513
  -0.00215833  0.00118891  0.61091175
  -0.00173551  0.49740749  0.61093962
   0.50220589  0.00123535  0.61084344
   0.49946487  0.49980034  0.61278733