CeO2                                    
           1
     7.707464    0.000000    0.000000
    -3.853732    6.674860    0.000000
     0.000000    0.000000   28.319031
   Ce   O    C    O 
  12  24   1   1
Direct configuration=     1
   0.16666700  0.33333300  0.38888900
   0.16666700  0.83333300  0.38888900
   0.66666700  0.33333300  0.38888900
   0.66666700  0.83333300  0.38888900
   0.00000000  0.00000000  0.61111100
   0.00000000  0.50000000  0.61111100
   0.50000000  0.00000000  0.61111100
   0.50000000  0.50000000  0.61111100
   0.33333300  0.16666700  0.50000000
   0.33333300  0.66666700  0.50000000
   0.83333300  0.16666700  0.50000000
   0.83333300  0.66666700  0.50000000
   0.16666700  0.33333300  0.47222200
   0.16666700  0.83333300  0.47222200
   0.66666700  0.33333300  0.47222200
   0.66666700  0.83333300  0.47222200
   0.00000000  0.00000000  0.36111100
   0.00000000  0.50000000  0.36111100
   0.50000000  0.00000000  0.36111100
   0.50000000  0.50000000  0.36111100
   0.33333300  0.16666700  0.58333300
   0.33333300  0.66666700  0.58333300
   0.83333300  0.16666700  0.58333300
   0.83333300  0.66666700  0.58333300
   0.00000000  0.00000000  0.52777800
   0.00000000  0.50000000  0.52777800
   0.50000000  0.00000000  0.52777800
   0.50000000  0.50000000  0.52777800
   0.33333300  0.16666700  0.41666700
   0.33333300  0.66666700  0.41666700
   0.83333300  0.16666700  0.41666700
   0.83333300  0.66666700  0.41666700
   0.16666700  0.33333300  0.63888900
   0.16666700  0.83333300  0.63888900
   0.66666700  0.33333300  0.63888900
   0.66666700  0.83333300  0.63888900
   0.00000000  0.05555600  0.72389500
   0.08554500  0.22664500  0.72389500
Direct configuration=     2
   0.16666815  0.33333724  0.38861304
   0.16666329  0.83332799  0.38861246
   0.66667006  0.33333741  0.38861301
   0.66666653  0.83333028  0.38861328
  -0.00028158 -0.00076302  0.61117252
   0.00022980  0.50016411  0.61134166
   0.49987595 -0.00014048  0.61133393
   0.49985223  0.50006681  0.61135183
   0.33334416  0.16668694  0.50001535
   0.33333631  0.66665508  0.50001742
   0.83333597  0.16667559  0.50001130
   0.83331581  0.66664953  0.50001383
   0.16666027  0.33333002  0.47179047
   0.16665784  0.83332901  0.47179210
   0.66667458  0.33333874  0.47179197
   0.66667522  0.83333545  0.47179309
  -0.00000016  0.00000131  0.36089936
   0.00000039  0.49999900  0.36089947
   0.50000061 -0.00000037  0.36089920
   0.49999903  0.50000026  0.36089958
   0.33335656  0.16662760  0.58312199
   0.33339074  0.66677415  0.58311008
   0.83328492  0.16662944  0.58312499
   0.83332210  0.66666120  0.58310618
  -0.00001450 -0.00001430  0.52820009
  -0.00001313  0.49999871  0.52819516
   0.50001046  0.00000289  0.52819905
   0.50001865  0.50001055  0.52819563
   0.33333308  0.16666924  0.41687927
   0.33333363  0.66666448  0.41687997
   0.83333532  0.16666742  0.41688089
   0.83333224  0.66666652  0.41688139
   0.16791860  0.33509512  0.63807166
   0.16695799  0.83347930  0.63906086
   0.66660910  0.33317174  0.63913725
   0.66639207  0.83348374  0.63902561
  -0.00008393  0.05494815  0.72416610
   0.08471663  0.22600416  0.72507899
Direct configuration=     3
   0.16666987  0.33334361  0.38819771
   0.16665771  0.83332045  0.38819625
   0.66667466  0.33334404  0.38819761
   0.66666583  0.83332618  0.38819828
  -0.00070539 -0.00191144  0.61126510
   0.00057567  0.50041111  0.61168881
   0.49968924 -0.00035192  0.61166946
   0.49962983  0.50016737  0.61171431
   0.33336095  0.16671696  0.50003845
   0.33334130  0.66663714  0.50004363
   0.83334044  0.16668853  0.50002831
   0.83328994  0.66662323  0.50003464
   0.16665015  0.33332553  0.47114097
   0.16664406  0.83332300  0.47114506
   0.66668599  0.33334738  0.47114473
   0.66668760  0.83333915  0.47114755
  -0.00000041  0.00000328  0.36058081
   0.00000097  0.49999751  0.36058110
   0.50000153 -0.00000094  0.36058041
   0.49999758  0.50000065  0.36058137
   0.33339203  0.16656831  0.58280440
   0.33347766  0.66693541  0.58277457
   0.83321257  0.16657291  0.58281191
   0.83330570  0.66665247  0.58276479
  -0.00003633 -0.00003583  0.52883537
  -0.00003290  0.49999678  0.52882301
   0.50002620  0.00000724  0.52883277
   0.50004673  0.50002642  0.52882421
   0.33333321  0.16667261  0.41719876
   0.33333458  0.66666069  0.41720050
   0.83333880  0.16666805  0.41720281
   0.83333109  0.66666579  0.41720407
   0.16980237  0.33774727  0.63684149
   0.16739595  0.83369948  0.63931952
   0.66652197  0.33292903  0.63951089
   0.66597828  0.83371062  0.63923121
  -0.00021026  0.05403328  0.72457414
   0.08346985  0.22503964  0.72686099
Direct configuration=     4
   0.16667866  0.33334544  0.38827403
   0.16667648  0.83333096  0.38827646
   0.66665933  0.33332915  0.38827495
   0.66665264  0.83332537  0.38827420
  -0.00087593 -0.00209500  0.61091550
   0.00027324  0.50026993  0.61144423
   0.50011553  0.00019959  0.61158067
   0.49998753  0.50023178  0.61149590
   0.33366698  0.16685269  0.50001047
   0.33336478  0.66668527  0.50003007
   0.83317748  0.16682459  0.50002560
   0.83312089  0.66629193  0.49987529
   0.16662437  0.33325528  0.47091902
   0.16658856  0.83334739  0.47092415
   0.66668924  0.33337216  0.47091121
   0.66676290  0.83335198  0.47092218
  -0.00000497 -0.00000675  0.36015805
  -0.00000599  0.49999866  0.36015744
   0.50000161  0.00000018  0.36015720
   0.50000607  0.50000119  0.36015767
   0.33329647  0.16591617  0.58297939
   0.33394158  0.66817347  0.58283067
   0.83294527  0.16618724  0.58303072
   0.83355755  0.66693044  0.58301420
  -0.00010879 -0.00025365  0.52904072
  -0.00006472  0.50007252  0.52903634
   0.50001269  0.00002397  0.52898542
   0.50012642  0.50005950  0.52901599
   0.33333748  0.16667546  0.41689157
   0.33333622  0.66665853  0.41688688
   0.83333509  0.16666723  0.41689136
   0.83332374  0.66665724  0.41689611
   0.17031862  0.33846481  0.63659159
   0.16730454  0.83376477  0.63970264
   0.66662125  0.33292154  0.63996689
   0.66603669  0.83388783  0.63957253
   0.00043245  0.05444514  0.72499123
   0.08163306  0.22303701  0.72868144
Direct configuration=     5
   0.16667855  0.33334541  0.38827302
   0.16667623  0.83333082  0.38827540
   0.66665954  0.33332935  0.38827393
   0.66665281  0.83332538  0.38827320
  -0.00087367 -0.00209257  0.61092012
   0.00027724  0.50027180  0.61144747
   0.50010988  0.00019228  0.61158185
   0.49998279  0.50023092  0.61149879
   0.33366293  0.16685090  0.50001084
   0.33336447  0.66668463  0.50003024
   0.83317964  0.16682279  0.50002564
   0.83312312  0.66629632  0.49987740
   0.16662471  0.33325621  0.47092195
   0.16658930  0.83334707  0.47092707
   0.66668919  0.33337183  0.47091430
   0.66676191  0.83335181  0.47092517
  -0.00000491 -0.00000662  0.36016365
  -0.00000590  0.49999864  0.36016305
   0.50000161  0.00000016  0.36016280
   0.50000595  0.50000118  0.36016328
   0.33329774  0.16592480  0.58297707
   0.33393544  0.66815708  0.58282992
   0.83294881  0.16619234  0.58302782
   0.83355421  0.66692676  0.58301090
  -0.00010783 -0.00025076  0.52903800
  -0.00006430  0.50007152  0.52903351
   0.50001287  0.00002375  0.52898340
   0.50012537  0.50005906  0.52901345
   0.33333743  0.16667542  0.41689564
   0.33333620  0.66665856  0.41689104
   0.83333514  0.16666724  0.41689549
   0.83332384  0.66665735  0.41690019
   0.17031178  0.33845531  0.63659489
   0.16730575  0.83376390  0.63969757
   0.66661993  0.33292164  0.63996086
   0.66603592  0.83388549  0.63956802
   0.00042394  0.05443968  0.72498571
   0.08165738  0.22306352  0.72865734
Direct configuration=     6
   0.16667938  0.33334531  0.38827740
   0.16668161  0.83333382  0.38828012
   0.66665612  0.33332426  0.38827677
   0.66664990  0.83332705  0.38827716
  -0.00089683 -0.00211962  0.61087098
   0.00023355  0.50026271  0.61141212
   0.50017754  0.00028168  0.61157681
   0.50005156  0.50025317  0.61146688
   0.33370990  0.16686716  0.50000575
   0.33337138  0.66669953  0.50002800
   0.83315095  0.16683974  0.50002440
   0.83309809  0.66624674  0.49984804
   0.16661923  0.33324305  0.47089449
   0.16657801  0.83335068  0.47089890
   0.66669090  0.33337730  0.47088411
   0.66677646  0.83335414  0.47089634
  -0.00000589 -0.00000896  0.36009002
  -0.00000778  0.49999905  0.36008925
   0.50000176  0.00000082  0.36008901
   0.50000826  0.50000134  0.36008944
   0.33328778  0.16580802  0.58300675
   0.33402494  0.66839134  0.58283736
   0.83289629  0.16612370  0.58306540
   0.83359608  0.66697133  0.58305424
  -0.00012276 -0.00029123  0.52905956
  -0.00007590  0.50008117  0.52905817
   0.50001766  0.00003661  0.52899523
   0.50014235  0.50006293  0.52903485
   0.33334017  0.16667656  0.41683899
   0.33333673  0.66665872  0.41683303
   0.83333317  0.16666779  0.41683831
   0.83332171  0.66665413  0.41684313
   0.17038331  0.33855328  0.63656326
   0.16728012  0.83377033  0.63976300
   0.66664167  0.33292725  0.64003915
   0.66605135  0.83391204  0.63962629
   0.00033812  0.05408325  0.72505170
   0.08152809  0.22313485  0.72900560
Direct configuration=     7
   0.16668052  0.33334516  0.38828340
   0.16668897  0.83333791  0.38828659
   0.66665145  0.33331729  0.38828066
   0.66664591  0.83332932  0.38828259
  -0.00092852 -0.00215664  0.61080372
   0.00017375  0.50025026  0.61136372
   0.50027014  0.00040404  0.61156990
   0.50014569  0.50028363  0.61142320
   0.33377418  0.16688942  0.49999878
   0.33338085  0.66671992  0.50002492
   0.83311168  0.16686295  0.50002270
   0.83306383  0.66617887  0.49980787
   0.16661172  0.33322504  0.47085689
   0.16656257  0.83335562  0.47086033
   0.66669324  0.33338479  0.47084280
   0.66679637  0.83335733  0.47085689
  -0.00000723 -0.00001217  0.35998924
  -0.00001035  0.49999960  0.35998823
   0.50000196  0.00000172  0.35998801
   0.50001142  0.50000155  0.35998836
   0.33327415  0.16564817  0.58304737
   0.33414746  0.66871199  0.58284754
   0.83282441  0.16602975  0.58311683
   0.83365339  0.66703232  0.58311357
  -0.00014321 -0.00034662  0.52908906
  -0.00009178  0.50009437  0.52909193
   0.50002422  0.00005422  0.52901143
   0.50016561  0.50006822  0.52906413
   0.33334392  0.16667812  0.41676146
   0.33333745  0.66665895  0.41675363
   0.83333047  0.16666854  0.41676005
   0.83331881  0.66664971  0.41676503
   0.17048121  0.33868737  0.63651996
   0.16724505  0.83377912  0.63985256
   0.66667143  0.33293493  0.64014632
   0.66607248  0.83394839  0.63970606
   0.00022065  0.05359538  0.72514202
   0.08135113  0.22323247  0.72948227
Direct configuration=     8
   0.16668280  0.33334487  0.38829539
   0.16670370  0.83334611  0.38829953
   0.66664209  0.33330335  0.38828843
   0.66663793  0.83333387  0.38829345
  -0.00099189 -0.00223069  0.61066920
   0.00005414  0.50022537  0.61126693
   0.50045535  0.00064875  0.61155610
   0.50033396  0.50034453  0.61133585
   0.33390274  0.16693393  0.49998484
   0.33339979  0.66676070  0.50001877
   0.83303314  0.16690937  0.50001930
   0.83299530  0.66604314  0.49972751
   0.16659671  0.33318902  0.47078170
   0.16653168  0.83336550  0.47078320
   0.66669791  0.33339977  0.47076016
   0.66683619  0.83336371  0.47077798
  -0.00000990 -0.00001859  0.35978767
  -0.00001551  0.50000071  0.35978620
   0.50000236  0.00000351  0.35978601
   0.50001773  0.50000198  0.35978621
   0.33324689  0.16532848  0.58312861
   0.33439248  0.66935328  0.58286790
   0.83268065  0.16584184  0.58321970
   0.83376801  0.66715430  0.58323222
  -0.00018410 -0.00045740  0.52914806
  -0.00012353  0.50012079  0.52915943
   0.50003735  0.00008943  0.52904382
   0.50021211  0.50007880  0.52912269
   0.33335143  0.16668124  0.41660640
   0.33333889  0.66665940  0.41659484
   0.83332507  0.16667005  0.41660352
   0.83331300  0.66664088  0.41660882
   0.17067702  0.33895554  0.63643337
   0.16717490  0.83379671  0.64003168
   0.66673095  0.33295028  0.64036066
   0.66611473  0.83402108  0.63986559
  -0.00001429  0.05261966  0.72532266
   0.08099722  0.22342772  0.73043561
Direct configuration=     9
   0.16668162  0.33334502  0.38828916
   0.16669605  0.83334186  0.38829281
   0.66664695  0.33331059  0.38828440
   0.66664207  0.83333151  0.38828781
  -0.00095899 -0.00219224  0.61073905
   0.00011624  0.50023829  0.61131719
   0.50035919  0.00052169  0.61156327
   0.50023621  0.50031291  0.61138120
   0.33383599  0.16691082  0.49999208
   0.33338995  0.66673952  0.50002196
   0.83307392  0.16688527  0.50002106
   0.83303088  0.66611362  0.49976923
   0.16660451  0.33320772  0.47082074
   0.16654771  0.83336037  0.47082325
   0.66669548  0.33339199  0.47080307
   0.66681551  0.83336040  0.47081895
  -0.00000851 -0.00001526  0.35989233
  -0.00001283  0.50000014  0.35989110
   0.50000215  0.00000258  0.35989089
   0.50001445  0.50000176  0.35989117
   0.33326105  0.16549447  0.58308643
   0.33426526  0.66902031  0.58285733
   0.83275529  0.16593940  0.58316629
   0.83370850  0.66709096  0.58317062
  -0.00016287 -0.00039988  0.52911742
  -0.00010704  0.50010707  0.52912438
   0.50003053  0.00007115  0.52902700
   0.50018796  0.50007331  0.52909228
   0.33334753  0.16667962  0.41668691
   0.33333814  0.66665916  0.41667729
   0.83332787  0.16666927  0.41668479
   0.83331601  0.66664546  0.41668993
   0.17057535  0.33881630  0.63647833
   0.16721132  0.83378758  0.63993868
   0.66670005  0.33294231  0.64024937
   0.66609279  0.83398334  0.63978276
   0.00010770  0.05312627  0.72522886
   0.08118098  0.22332634  0.72994062
Direct configuration=    10
   0.16668022  0.33334398  0.38826398
   0.16670272  0.83334537  0.38826661
   0.66664390  0.33330287  0.38825424
   0.66663939  0.83333608  0.38826134
  -0.00095193 -0.00219537  0.61075311
   0.00012795  0.50027164  0.61132860
   0.50036541  0.00053632  0.61159045
   0.50026780  0.50034405  0.61139075
   0.33383555  0.16689881  0.49998964
   0.33339860  0.66675904  0.50002117
   0.83306464  0.16687493  0.50001855
   0.83303296  0.66611663  0.49975572
   0.16660060  0.33320191  0.47083198
   0.16654030  0.83335930  0.47083202
   0.66669882  0.33339667  0.47081148
   0.66682276  0.83336070  0.47082784
  -0.00000930 -0.00001745  0.35986700
  -0.00001494  0.50000059  0.35986566
   0.50000229  0.00000358  0.35986523
   0.50001678  0.50000177  0.35986563
   0.33327448  0.16545356  0.58308948
   0.33431279  0.66913279  0.58285031
   0.83272569  0.16591558  0.58317217
   0.83371469  0.66709405  0.58317890
  -0.00017295 -0.00041784  0.52909692
  -0.00012443  0.50010135  0.52910866
   0.50004944  0.00009891  0.52900233
   0.50019958  0.50006997  0.52907707
   0.33335286  0.16668130  0.41666680
   0.33333873  0.66666028  0.41665635
   0.83332408  0.16667087  0.41666501
   0.83331327  0.66664027  0.41666902
   0.17057630  0.33881305  0.63648253
   0.16718531  0.83378057  0.63995842
   0.66671611  0.33295965  0.64027384
   0.66610595  0.83398280  0.63980022
   0.00013758  0.05308729  0.72526389
   0.08105099  0.22323513  0.73011710
Direct configuration=    11
   0.16667604  0.33334085  0.38818842
   0.16672272  0.83335591  0.38818800
   0.66663477  0.33327969  0.38816378
   0.66663133  0.83334977  0.38818191
  -0.00093076 -0.00220477  0.61079529
   0.00016308  0.50037169  0.61136283
   0.50038408  0.00058019  0.61167201
   0.50036257  0.50043748  0.61141938
   0.33383421  0.16686280  0.49998230
   0.33342452  0.66681758  0.50001881
   0.83303682  0.16684391  0.50001100
   0.83303920  0.66612568  0.49971517
   0.16658888  0.33318448  0.47086570
   0.16651806  0.83335610  0.47085832
   0.66670885  0.33341071  0.47083674
   0.66684450  0.83336161  0.47085449
  -0.00001167 -0.00002400  0.35979100
  -0.00002128  0.50000197  0.35978934
   0.50000269  0.00000660  0.35978824
   0.50002376  0.50000179  0.35978902
   0.33331479  0.16533082  0.58309865
   0.33445539  0.66947021  0.58282928
   0.83263688  0.16584411  0.58318983
   0.83373328  0.66710332  0.58320375
  -0.00020320 -0.00047169  0.52903539
  -0.00017659  0.50008418  0.52906151
   0.50010615  0.00018219  0.52892832
   0.50023444  0.50005994  0.52903143
   0.33336884  0.16668635  0.41660649
   0.33334051  0.66666364  0.41659353
   0.83331270  0.16667569  0.41660564
   0.83330506  0.66662470  0.41660628
   0.17057915  0.33880329  0.63649512
   0.16710727  0.83375954  0.64001763
   0.66676429  0.33301166  0.64034724
   0.66614542  0.83398119  0.63985258
   0.00022721  0.05297034  0.72536898
   0.08066103  0.22296147  0.73064655
Direct configuration=    12
   0.16666767  0.33333460  0.38803731
   0.16676273  0.83337698  0.38803078
   0.66661649  0.33323335  0.38798286
   0.66661522  0.83337715  0.38802307
  -0.00088843 -0.00222356  0.61087965
   0.00023334  0.50057179  0.61143129
   0.50042141  0.00066795  0.61183513
   0.50055211  0.50062433  0.61147665
   0.33383155  0.16679078  0.49996764
   0.33347638  0.66693467  0.50001408
   0.83298118  0.16678187  0.49999591
   0.83305169  0.66614378  0.49963409
   0.16656545  0.33314962  0.47093314
   0.16647359  0.83334970  0.47091094
   0.66672891  0.33343878  0.47088725
   0.66688798  0.83336343  0.47090779
  -0.00001641 -0.00003712  0.35963900
  -0.00003395  0.50000472  0.35963671
   0.50000350  0.00001264  0.35963428
   0.50003772  0.50000185  0.35963579
   0.33339541  0.16508535  0.58311697
   0.33474058  0.67014507  0.58278720
   0.83245927  0.16570116  0.58322515
   0.83377047  0.66712185  0.58325346
  -0.00026371 -0.00057941  0.52891234
  -0.00028092  0.50004983  0.52896719
   0.50021957  0.00034874  0.52878031
   0.50030414  0.50003990  0.52894016
   0.33340081  0.16669643  0.41648586
   0.33334406  0.66667035  0.41646790
   0.83328995  0.16668532  0.41648692
   0.83328862  0.66659356  0.41648082
   0.17058485  0.33878378  0.63652030
   0.16695119  0.83371749  0.64013606
   0.66686065  0.33311568  0.64049405
   0.66622436  0.83397797  0.63995731
   0.00040648  0.05273645  0.72557915
   0.07988111  0.22241416  0.73170546
Direct configuration=    13
   0.16665092  0.33332209  0.38773508
   0.16684275  0.83341913  0.38771634
   0.66657994  0.33314066  0.38762102
   0.66658299  0.83343193  0.38770537
  -0.00080377 -0.00226113  0.61104837
   0.00037386  0.50097199  0.61156822
   0.50049608  0.00084346  0.61216137
   0.50093119  0.50099804  0.61159119
   0.33382622  0.16664674  0.49993831
   0.33358009  0.66716884  0.50000462
   0.83286989  0.16665780  0.49996574
   0.83307666  0.66617998  0.49947191
   0.16651858  0.33307990  0.47106803
   0.16638463  0.83333689  0.47101617
   0.66676903  0.33349492  0.47098828
   0.66697494  0.83336707  0.47101440
  -0.00002589 -0.00006334  0.35933501
  -0.00005929  0.50001021  0.35933144
   0.50000512  0.00002471  0.35932634
   0.50006563  0.50000197  0.35932934
   0.33355664  0.16459441  0.58315363
   0.33531097  0.67149477  0.58270305
   0.83210404  0.16541527  0.58329579
   0.83384483  0.66715891  0.58335288
  -0.00038472 -0.00079483  0.52866623
  -0.00048957  0.49998114  0.52877857
   0.50044641  0.00068186  0.52848428
   0.50044355  0.49999980  0.52875761
   0.33346475  0.16671661  0.41624461
   0.33335117  0.66668378  0.41621664
   0.83324444  0.16670458  0.41624946
   0.83325574  0.66653127  0.41622989
   0.17059626  0.33874476  0.63657067
   0.16663902  0.83363337  0.64037291
   0.66705337  0.33332372  0.64078766
   0.66638224  0.83397153  0.64016678
   0.00076503  0.05226865  0.72599950
   0.07832126  0.22131954  0.73382326
Direct configuration=    14
   0.16661744  0.33329708  0.38713062
   0.16700278  0.83350343  0.38708747
   0.66650683  0.33295529  0.38689734
   0.66651853  0.83354147  0.38706998
  -0.00063444 -0.00233628  0.61138581
   0.00065489  0.50177239  0.61184208
   0.50064541  0.00119447  0.61281386
   0.50168935  0.50174546  0.61182028
   0.33381557  0.16635865  0.49987965
   0.33378751  0.66763719  0.49998570
   0.83264732  0.16640964  0.49990539
   0.83312661  0.66625238  0.49914757
   0.16642483  0.33294046  0.47133780
   0.16620672  0.83331128  0.47122663
   0.66684927  0.33360721  0.47119032
   0.66714886  0.83337435  0.47122761
  -0.00004485 -0.00011580  0.35872703
  -0.00010996  0.50002120  0.35872090
   0.50000835  0.00004886  0.35871047
   0.50012146  0.50000220  0.35871645
   0.33387910  0.16361254  0.58322694
   0.33645175  0.67419419  0.58253476
   0.83139357  0.16484349  0.58343707
   0.83399356  0.66723304  0.58355172
  -0.00062675 -0.00122568  0.52817403
  -0.00090687  0.49984377  0.52840131
   0.50090010  0.00134809  0.52789221
   0.50072237  0.49991961  0.52839251
   0.33359263  0.16675697  0.41576211
   0.33336539  0.66671063  0.41571413
   0.83315342  0.16674309  0.41577456
   0.83318999  0.66640669  0.41572803
   0.17061907  0.33866671  0.63667140
   0.16601469  0.83346514  0.64084663
   0.66743881  0.33373980  0.64137489
   0.66669801  0.83395864  0.64058570
   0.00148212  0.05133306  0.72684019
   0.07520157  0.21913031  0.73805887
Direct configuration=    15
   0.16663482  0.33331007  0.38744449
   0.16691969  0.83345966  0.38741401
   0.66654479  0.33305154  0.38727311
   0.66655200  0.83348459  0.38739991
  -0.00072236 -0.00229726  0.61121059
   0.00050896  0.50135678  0.61169988
   0.50056787  0.00101221  0.61247505
   0.50129567  0.50135736  0.61170132
   0.33382110  0.16650824  0.49991011
   0.33367980  0.66739400  0.49999552
   0.83276289  0.16653850  0.49993672
   0.83310068  0.66621479  0.49931599
   0.16647351  0.33301286  0.47119772
   0.16629910  0.83332458  0.47111735
   0.66680761  0.33354891  0.47108541
   0.66705855  0.83337057  0.47111690
  -0.00003501 -0.00008856  0.35904273
  -0.00008365  0.50001549  0.35903793
   0.50000667  0.00003632  0.35903026
   0.50009247  0.50000208  0.35903470
   0.33371166  0.16412238  0.58318887
   0.33585939  0.67279251  0.58262215
   0.83176248  0.16514039  0.58336371
   0.83391633  0.66719455  0.58344847
  -0.00050108 -0.00100196  0.52842961
  -0.00069019  0.49991510  0.52859720
   0.50066452  0.00100215  0.52819964
   0.50057760  0.49996125  0.52858209
   0.33352623  0.16673601  0.41601265
   0.33335801  0.66669668  0.41597506
   0.83320068  0.16672309  0.41602115
   0.83322413  0.66647138  0.41598862
   0.17060722  0.33870724  0.63661910
   0.16633888  0.83355250  0.64060065
   0.66723867  0.33352375  0.64106997
   0.66653404  0.83396533  0.64036817
   0.00110977  0.05181887  0.72640365
   0.07682148  0.22026707  0.73585952
Direct configuration=    16
   0.16663260  0.33330801  0.38740282
   0.16692812  0.83346448  0.38736879
   0.66654076  0.33304128  0.38722239
   0.66654900  0.83349083  0.38735450
  -0.00070587 -0.00229408  0.61123726
   0.00053148  0.50141419  0.61171844
   0.50057831  0.00103633  0.61251649
   0.50134532  0.50140925  0.61171605
   0.33381581  0.16648710  0.49990280
   0.33369376  0.66742651  0.49998963
   0.83275211  0.16652107  0.49992971
   0.83310652  0.66622340  0.49929384
   0.16647001  0.33300817  0.47121401
   0.16628852  0.83331960  0.47112811
   0.66681385  0.33355897  0.47109497
   0.66706560  0.83336711  0.47112778
  -0.00003625 -0.00009182  0.35900008
  -0.00008631  0.50001624  0.35899464
   0.50000661  0.00003725  0.35898607
   0.50009550  0.50000221  0.35899126
   0.33374298  0.16406819  0.58319645
   0.33593408  0.67296380  0.58261520
   0.83171444  0.16510871  0.58337500
   0.83392034  0.66719276  0.58346163
  -0.00051658 -0.00102950  0.52839678
  -0.00071653  0.49990578  0.52857246
   0.50070122  0.00105490  0.52815767
   0.50059452  0.49995626  0.52855930
   0.33353481  0.16673706  0.41597717
   0.33335982  0.66670046  0.41593898
   0.83319301  0.16672419  0.41598609
   0.83322026  0.66646385  0.41595125
   0.17060408  0.33869180  0.63663735
   0.16629277  0.83353344  0.64063283
   0.66726778  0.33356373  0.64110769
   0.66655192  0.83395202  0.64039668
   0.00131560  0.05208041  0.72648071
   0.07644504  0.21978704  0.73615709
Direct configuration=    17
   0.16662687  0.33330272  0.38729563
   0.16694981  0.83347688  0.38725246
   0.66653038  0.33301487  0.38709190
   0.66654128  0.83350688  0.38723768
  -0.00066342 -0.00228589  0.61130586
   0.00058941  0.50156189  0.61176619
   0.50060516  0.00109840  0.61262309
   0.50147305  0.50154275  0.61175393
   0.33380220  0.16643273  0.49988400
   0.33372965  0.66751016  0.49997448
   0.83272436  0.16647623  0.49991167
   0.83312154  0.66624556  0.49923687
   0.16646100  0.33299611  0.47125590
   0.16626132  0.83330681  0.47115579
   0.66682990  0.33358485  0.47111957
   0.66708373  0.83335820  0.47115577
  -0.00003945 -0.00010021  0.35889037
  -0.00009316  0.50001817  0.35888329
   0.50000643  0.00003963  0.35887237
   0.50010328  0.50000256  0.35887952
   0.33382356  0.16392877  0.58321594
   0.33612623  0.67340446  0.58259734
   0.83159084  0.16502722  0.58340405
   0.83393065  0.66718817  0.58349549
  -0.00055645 -0.00110034  0.52831234
  -0.00078429  0.49988179  0.52850882
   0.50079564  0.00119061  0.52804970
   0.50063808  0.49994343  0.52850068
   0.33355689  0.16673975  0.41588591
   0.33336449  0.66671018  0.41584615
   0.83317328  0.16672702  0.41589589
   0.83321028  0.66644448  0.41585512
   0.17059600  0.33865207  0.63668432
   0.16617415  0.83348440  0.64071560
   0.66734267  0.33366660  0.64120475
   0.66659791  0.83391777  0.64047000
   0.00184515  0.05275325  0.72667894
   0.07547659  0.21855207  0.73692263
Direct configuration=    18
   0.16661541  0.33329214  0.38708124
   0.16699320  0.83350167  0.38701978
   0.66650961  0.33296205  0.38683091
   0.66652584  0.83353899  0.38700403
  -0.00057853 -0.00226952  0.61144307
   0.00070527  0.50185730  0.61186170
   0.50065886  0.00122254  0.61283629
   0.50172852  0.50180974  0.61182968
   0.33377498  0.16632397  0.49984639
   0.33380144  0.66767746  0.49994418
   0.83266887  0.16638654  0.49987560
   0.83315159  0.66628989  0.49912292
   0.16644298  0.33297198  0.47133970
   0.16620690  0.83328122  0.47121116
   0.66686201  0.33363662  0.47116876
   0.66712000  0.83334038  0.47121175
  -0.00004586 -0.00011698  0.35867094
  -0.00010687  0.50002202  0.35866060
   0.50000608  0.00004441  0.35864497
   0.50011885  0.50000325  0.35865605
   0.33398471  0.16364994  0.58325492
   0.33651052  0.67428579  0.58256162
   0.83134365  0.16486424  0.58346216
   0.83395128  0.66717900  0.58356320
  -0.00063620 -0.00124203  0.52814344
  -0.00091981  0.49983382  0.52838153
   0.50098447  0.00146203  0.52783374
   0.50072518  0.49991778  0.52838344
   0.33360106  0.16674514  0.41570338
   0.33337383  0.66672962  0.41566049
   0.83313380  0.16673269  0.41571549
   0.83319033  0.66640573  0.41566284
   0.17057984  0.33857261  0.63677826
   0.16593691  0.83338633  0.64088116
   0.66749244  0.33387234  0.64139885
   0.66668988  0.83384926  0.64061664
   0.00290424  0.05409893  0.72707541
   0.07353970  0.21608214  0.73845371
Direct configuration=    19
   0.16662105  0.33329735  0.38718686
   0.16697182  0.83348946  0.38713441
   0.66651984  0.33298807  0.38695948
   0.66653344  0.83352317  0.38711914
  -0.00062035 -0.00227759  0.61137547
   0.00064819  0.50171177  0.61181465
   0.50063240  0.00116138  0.61273126
   0.50160267  0.50167821  0.61179236
   0.33378839  0.16637755  0.49986492
   0.33376607  0.66759504  0.49995911
   0.83269621  0.16643072  0.49989337
   0.83313679  0.66626805  0.49917906
   0.16645186  0.33298387  0.47129842
   0.16623371  0.83329382  0.47118388
   0.66684619  0.33361112  0.47114452
   0.66710213  0.83334916  0.47118417
  -0.00004270 -0.00010872  0.35877904
  -0.00010012  0.50002012  0.35877031
   0.50000626  0.00004206  0.35875700
   0.50011118  0.50000291  0.35876614
   0.33390532  0.16378730  0.58323572
   0.33632120  0.67385161  0.58257922
   0.83146543  0.16494453  0.58343353
   0.83394112  0.66718352  0.58352984
  -0.00059691 -0.00117223  0.52822665
  -0.00085305  0.49985745  0.52844424
   0.50089144  0.00132832  0.52794013
   0.50068227  0.49993042  0.52844120
   0.33357930  0.16674248  0.41579330
   0.33336923  0.66672004  0.41575195
   0.83315325  0.16672990  0.41580437
   0.83320016  0.66642482  0.41575756
   0.17058780  0.33861175  0.63673198
   0.16605378  0.83343464  0.64079960
   0.66741866  0.33377099  0.64130323
   0.66664457  0.83388301  0.64054440
   0.00238249  0.05343599  0.72688010
   0.07449390  0.21729893  0.73769944
Direct configuration=    20
   0.16662044  0.33329581  0.38716519
   0.16696927  0.83348924  0.38710606
   0.66652040  0.33298958  0.38693074
   0.66653558  0.83352271  0.38709133
  -0.00060315 -0.00225792  0.61139497
   0.00066276  0.50174632  0.61181954
   0.50064589  0.00118247  0.61274344
   0.50162939  0.50170904  0.61179382
   0.33377926  0.16636702  0.49985222
   0.33377289  0.66761281  0.49994396
   0.83270099  0.16642430  0.49988225
   0.83314280  0.66627609  0.49916566
   0.16645802  0.33299403  0.47129770
   0.16623233  0.83328323  0.47117631
   0.66685158  0.33362361  0.47113451
   0.66709350  0.83333689  0.47117641
  -0.00004300 -0.00010917  0.35874848
  -0.00009899  0.50002064  0.35873821
   0.50000546  0.00004058  0.35872287
   0.50011045  0.50000341  0.35873401
   0.33394292  0.16378622  0.58324853
   0.33635430  0.67391643  0.58258846
   0.83144117  0.16494440  0.58344643
   0.83393129  0.66716953  0.58353846
  -0.00060176 -0.00118242  0.52821463
  -0.00085861  0.49985496  0.52843704
   0.50092410  0.00137338  0.52791609
   0.50068493  0.49993020  0.52843757
   0.33358245  0.16673846  0.41576415
   0.33337239  0.66672711  0.41572442
   0.83314636  0.16672639  0.41577504
   0.83320031  0.66642448  0.41572595
   0.17057907  0.33858529  0.63676974
   0.16602050  0.83340495  0.64081993
   0.66744299  0.33382297  0.64132193
   0.66664342  0.83384440  0.64056243
   0.00248292  0.05347602  0.72692113
   0.07427034  0.21710754  0.73796039
Direct configuration=    21
   0.16661860  0.33329119  0.38710020
   0.16696163  0.83348861  0.38702101
   0.66652209  0.33299410  0.38684451
   0.66654200  0.83352133  0.38700792
  -0.00055153 -0.00219893  0.61145348
   0.00070646  0.50184996  0.61183422
   0.50068636  0.00124571  0.61277997
   0.50170956  0.50180154  0.61179821