CeO2                                    
           1
     7.707464    0.000000    0.000000
    -3.853732    6.674860    0.000000
     0.000000    0.000000   28.319031
   Ce   O    C    O 
  12  24   1   1
Direct configuration=     1
   0.16666700  0.33333300  0.38888900
   0.16666700  0.83333300  0.38888900
   0.66666700  0.33333300  0.38888900
   0.66666700  0.83333300  0.38888900
   0.00000000  0.00000000  0.61111100
   0.00000000  0.50000000  0.61111100
   0.50000000  0.00000000  0.61111100
   0.50000000  0.50000000  0.61111100
   0.33333300  0.16666700  0.50000000
   0.33333300  0.66666700  0.50000000
   0.83333300  0.16666700  0.50000000
   0.83333300  0.66666700  0.50000000
   0.16666700  0.33333300  0.47222200
   0.16666700  0.83333300  0.47222200
   0.66666700  0.33333300  0.47222200
   0.66666700  0.83333300  0.47222200
   0.00000000  0.00000000  0.36111100
   0.00000000  0.50000000  0.36111100
   0.50000000  0.00000000  0.36111100
   0.50000000  0.50000000  0.36111100
   0.33333300  0.16666700  0.58333300
   0.33333300  0.66666700  0.58333300
   0.83333300  0.16666700  0.58333300
   0.83333300  0.66666700  0.58333300
   0.00000000  0.00000000  0.52777800
   0.00000000  0.50000000  0.52777800
   0.50000000  0.00000000  0.52777800
   0.50000000  0.50000000  0.52777800
   0.33333300  0.16666700  0.41666700
   0.33333300  0.66666700  0.41666700
   0.83333300  0.16666700  0.41666700
   0.83333300  0.66666700  0.41666700
   0.16666700  0.33333300  0.63888900
   0.16666700  0.83333300  0.63888900
   0.66666700  0.33333300  0.63888900
   0.66666700  0.83333300  0.63888900
   0.33333300  0.11111100  0.72389500
   0.41887800  0.28220100  0.72389500
Direct configuration=     2
   0.16666572  0.33333539  0.38861474
   0.16666450  0.83332942  0.38861424
   0.66666968  0.33333483  0.38861384
   0.66666667  0.83333229  0.38861513
  -0.00040947 -0.00022095  0.61127638
  -0.00008818  0.49993746  0.61139384
   0.50018663 -0.00029154  0.61125868
   0.50016401  0.50029418  0.61141250
   0.33333009  0.16667362  0.49999438
   0.33332719  0.66665284  0.50000887
   0.83334343  0.16667542  0.50001094
   0.83332933  0.66666060  0.50000962
   0.16666841  0.33332823  0.47179518
   0.16667287  0.83334163  0.47179489
   0.66665954  0.33332614  0.47179398
   0.66666687  0.83333660  0.47179693
   0.00000554  0.00000281  0.36090704
  -0.00000251  0.49999842  0.36090764
   0.49999807  0.00000466  0.36090709
   0.49999840  0.49999363  0.36090718
   0.33332724  0.16665905  0.58314034
   0.33337717  0.66669410  0.58311069
   0.83331930  0.16660627  0.58310898
   0.83331934  0.66671198  0.58311127
   0.00000757  0.00000816  0.52820489
   0.00000592  0.49999876  0.52819144
   0.49999765  0.00000050  0.52820592
   0.49999240  0.49999727  0.52819808
   0.33333409  0.16666735  0.41688667
   0.33332787  0.66666313  0.41688672
   0.83333576  0.16667246  0.41688628
   0.83333514  0.66666306  0.41688561
   0.16634153  0.33315877  0.63902539
   0.16647579  0.83319194  0.63887775
   0.66727389  0.33330752  0.63887903
   0.66673021  0.83344397  0.63907194
   0.33288210  0.10975745  0.72437433
   0.41931124  0.28406460  0.72411158
Direct configuration=     3
   0.16666606  0.33333475  0.38868786
   0.16666517  0.83333038  0.38868750
   0.66666897  0.33333434  0.38868720
   0.66666676  0.83333248  0.38868815
  -0.00030030 -0.00016204  0.61123229
  -0.00006467  0.49995413  0.61131843
   0.50013687 -0.00021381  0.61121930
   0.50012028  0.50021575  0.61133211
   0.33333086  0.16667186  0.49999588
   0.33332874  0.66665662  0.50000651
   0.83334065  0.16667318  0.50000802
   0.83333031  0.66666231  0.50000706
   0.16666803  0.33332950  0.47190898
   0.16667131  0.83333933  0.47190876
   0.66666153  0.33332797  0.47190810
   0.66666690  0.83333564  0.47191026
   0.00000406  0.00000206  0.36096142
  -0.00000184  0.49999884  0.36096186
   0.49999858  0.00000342  0.36096146
   0.49999883  0.49999533  0.36096152
   0.33332878  0.16666117  0.58319171
   0.33336540  0.66668688  0.58316996
   0.83332295  0.16662246  0.58316871
   0.83332298  0.66669999  0.58317039
   0.00000555  0.00000598  0.52809108
   0.00000434  0.49999909  0.52808121
   0.49999828  0.00000037  0.52809183
   0.49999443  0.49999800  0.52808608
   0.33333380  0.16666725  0.41682810
   0.33332923  0.66666416  0.41682814
   0.83333503  0.16667100  0.41682781
   0.83333457  0.66666411  0.41682733
   0.16642831  0.33320522  0.63898902
   0.16652677  0.83322955  0.63888075
   0.66711208  0.33331431  0.63888169
   0.66671336  0.83341438  0.63902317
   0.33300232  0.11011833  0.72424653
   0.41919573  0.28356773  0.72405384
Direct configuration=     4
   0.16666572  0.33333518  0.38863350
   0.16666466  0.83332964  0.38863307
   0.66666957  0.33333469  0.38863271
   0.66666673  0.83333240  0.38863389
  -0.00037714 -0.00020242  0.61126408
  -0.00008307  0.49993904  0.61137462
   0.50017285 -0.00026980  0.61124703
   0.50014898  0.50026688  0.61139205
   0.33333118  0.16667463  0.49999539
   0.33332647  0.66665217  0.50000784
   0.83334354  0.16667666  0.50000958
   0.83332896  0.66665934  0.50000866
   0.16666817  0.33332827  0.47182179
   0.16667261  0.83334133  0.47182159
   0.66665986  0.33332631  0.47182074
   0.66666703  0.83333663  0.47182348
   0.00000494  0.00000250  0.36091698
  -0.00000225  0.49999857  0.36091749
   0.49999825  0.00000413  0.36091702
   0.49999855  0.49999430  0.36091710
   0.33332931  0.16666187  0.58315608
   0.33337722  0.66669162  0.58312843
   0.83331922  0.16660680  0.58312582
   0.83331646  0.66670890  0.58312868
   0.00000629  0.00000703  0.52817788
   0.00000532  0.49999885  0.52816578
   0.49999812 -0.00000006  0.52817896
   0.49999339  0.49999817  0.52817224
   0.33333393  0.16666728  0.41686877
   0.33332844  0.66666351  0.41686879
   0.83333548  0.16667181  0.41686841
   0.83333490  0.66666351  0.41686779
   0.16636068  0.33317087  0.63901870
   0.16648755  0.83320047  0.63888069
   0.66724010  0.33331028  0.63888099
   0.66672486  0.83343518  0.63906325
   0.33315042  0.11032064  0.72434916
   0.41904371  0.28347485  0.72410096
Direct configuration=     5
   0.16666468  0.33333645  0.38847040
   0.16666313  0.83332741  0.38846978
   0.66667136  0.33333573  0.38846923
   0.66666665  0.83333215  0.38847112
  -0.00060768 -0.00032354  0.61135947
  -0.00013827  0.49989375  0.61154319
   0.50028079 -0.00043778  0.61133021
   0.50023506  0.50042028  0.61157188
   0.33333213  0.16668296  0.49999390
   0.33331966  0.66663884  0.50001183
   0.83335221  0.16668713  0.50001427
   0.83332493  0.66665042  0.50001346
   0.16666858  0.33332457  0.47156023
   0.16667652  0.83334731  0.47156007
   0.66665488  0.33332134  0.47155867
   0.66666740  0.83333960  0.47156314
   0.00000756  0.00000382  0.36078365
  -0.00000345  0.49999777  0.36078438
   0.49999726  0.00000627  0.36078372
   0.49999772  0.49999122  0.36078384
   0.33333089  0.16666396  0.58304921
   0.33341271  0.66670584  0.58300384
   0.83330803  0.16655979  0.58299714
   0.83329690  0.66673564  0.58300358
   0.00000848  0.00001015  0.52843830
   0.00000825  0.49999811  0.52841950
   0.49999764 -0.00000135  0.52844035
   0.49999028  0.49999869  0.52843071
   0.33333432  0.16666735  0.41699078
   0.33332607  0.66666157  0.41699073
   0.83333686  0.16667423  0.41699022
   0.83333589  0.66666169  0.41698919
   0.16615779  0.33306783  0.63910775
   0.16636988  0.83311326  0.63888049
   0.66762414  0.33329818  0.63887889
   0.66675938  0.83349758  0.63918351
   0.33359473  0.11092755  0.72465705
   0.41858765  0.28319621  0.72424234
Direct configuration=     6
   0.16666260  0.33333899  0.38814422
   0.16666006  0.83332297  0.38814321
   0.66667495  0.33333782  0.38814226
   0.66666648  0.83333165  0.38814559
  -0.00106874 -0.00056580  0.61155025
  -0.00024866  0.49980317  0.61188034
   0.50049667 -0.00077372  0.61149656
   0.50040723  0.50072706  0.61193152
   0.33333403  0.16669962  0.49999092
   0.33330604  0.66661218  0.50001982
   0.83336954  0.16670805  0.50002365
   0.83331686  0.66663260  0.50002306
   0.16666940  0.33331718  0.47103710
   0.16668435  0.83335928  0.47103702
   0.66664490  0.33331140  0.47103452
   0.66666815  0.83334553  0.47104246
   0.00001282  0.00000646  0.36051700
  -0.00000586  0.49999616  0.36051817
   0.49999527  0.00001055  0.36051710
   0.49999605  0.49998507  0.36051731
   0.33333405  0.16666814  0.58283545
   0.33348368  0.66673429  0.58275465
   0.83328566  0.16646579  0.58273980
   0.83325777  0.66678913  0.58275336
   0.00001288  0.00001640  0.52895914
   0.00001412  0.49999665  0.52892693
   0.49999669 -0.00000393  0.52896312
   0.49998406  0.49999972  0.52894767
   0.33333509  0.16666751  0.41723479
   0.33332133  0.66665768  0.41723461
   0.83333960  0.16667907  0.41723383
   0.83333787  0.66665807  0.41723198
   0.16575203  0.33286174  0.63928584
   0.16613454  0.83293883  0.63888009
   0.66839224  0.33327398  0.63887469
   0.66682841  0.83362237  0.63942401
   0.33448334  0.11214138  0.72527284
   0.41767553  0.28263894  0.72452509
Direct configuration=     7
   0.16666363  0.33333772  0.38830680
   0.16666159  0.83332518  0.38830598
   0.66667316  0.33333678  0.38830523
   0.66666656  0.83333190  0.38830784
  -0.00083894 -0.00044505  0.61145517
  -0.00019364  0.49984832  0.61171230
   0.50038907 -0.00060628  0.61141365
   0.50032142  0.50057416  0.61175227
   0.33333308  0.16669131  0.49999241
   0.33331283  0.66662547  0.50001584
   0.83336090  0.16669762  0.50001898
   0.83332088  0.66664148  0.50001828
   0.16666899  0.33332087  0.47129784
   0.16668045  0.83335332  0.47129772
   0.66664987  0.33331636  0.47129577
   0.66666778  0.83334257  0.47130197
   0.00001020  0.00000515  0.36064991
  -0.00000466  0.49999696  0.36065086
   0.49999626  0.00000842  0.36064999
   0.49999688  0.49998814  0.36065015
   0.33333247  0.16666605  0.58294199
   0.33344831  0.66672011  0.58287885
   0.83329681  0.16651264  0.58286807
   0.83327727  0.66676247  0.58287807
   0.00001069  0.00001329  0.52869954
   0.00001120  0.49999738  0.52867402
   0.49999716 -0.00000264  0.52870256
   0.49998716  0.49999921  0.52869001
   0.33333470  0.16666743  0.41711317
   0.33332369  0.66665962  0.41711305
   0.83333823  0.16667666  0.41711241
   0.83333688  0.66665987  0.41711097
   0.16595427  0.33296446  0.63919708
   0.16625184  0.83302577  0.63888029
   0.66800941  0.33328604  0.63887678
   0.66679400  0.83356017  0.63930414
   0.33404044  0.11153639  0.72496592
   0.41813015  0.28291669  0.72438416
Direct configuration=     8
   0.16666359  0.33333778  0.38829999
   0.16666153  0.83332509  0.38829917
   0.66667323  0.33333682  0.38829840
   0.66666656  0.83333188  0.38830105
  -0.00084856 -0.00045011  0.61145915
  -0.00019594  0.49984643  0.61171934
   0.50039357 -0.00061329  0.61141712
   0.50032501  0.50058056  0.61175977
   0.33333312  0.16669166  0.49999234
   0.33331255  0.66662491  0.50001600
   0.83336126  0.16669806  0.50001918
   0.83332071  0.66664111  0.50001848
   0.16666901  0.33332071  0.47128692
   0.16668062  0.83335357  0.47128680
   0.66664967  0.33331615  0.47128483
   0.66666779  0.83334270  0.47129111
   0.00001031  0.00000520  0.36064434
  -0.00000471  0.49999693  0.36064530
   0.49999622  0.00000851  0.36064442
   0.49999684  0.49998801  0.36064459
   0.33333254  0.16666614  0.58293753
   0.33344979  0.66672071  0.58287365
   0.83329634  0.16651068  0.58286269
   0.83327646  0.66676359  0.58287285
   0.00001078  0.00001342  0.52871041
   0.00001132  0.49999735  0.52868460
   0.49999714 -0.00000270  0.52871347
   0.49998703  0.49999923  0.52870080
   0.33333472  0.16666743  0.41711826
   0.33332359  0.66665954  0.41711814
   0.83333829  0.16667676  0.41711749
   0.83333692  0.66665980  0.41711603
   0.16594580  0.33296016  0.63920079
   0.16624693  0.83302213  0.63888028
   0.66802544  0.33328554  0.63887670
   0.66679544  0.83356278  0.63930916
   0.33405898  0.11156172  0.72497877
   0.41811111  0.28290506  0.72439006
Direct configuration=     9
   0.16666362  0.33333775  0.38830414
   0.16666157  0.83332515  0.38830332
   0.66667319  0.33333680  0.38830256
   0.66666656  0.83333189  0.38830519
  -0.00084269 -0.00044703  0.61145672
  -0.00019454  0.49984758  0.61171505
   0.50039083 -0.00060902  0.61141501
   0.50032282  0.50057666  0.61175520
   0.33333310  0.16669145  0.49999238
   0.33331272  0.66662525  0.50001590
   0.83336104  0.16669779  0.50001906
   0.83332081  0.66664134  0.50001835
   0.16666900  0.33332081  0.47129358
   0.16668052  0.83335342  0.47129345
   0.66664979  0.33331628  0.47129149
   0.66666778  0.83334262  0.47129773
   0.00001024  0.00000517  0.36064773
  -0.00000468  0.49999695  0.36064869
   0.49999625  0.00000845  0.36064781
   0.49999686  0.49998809  0.36064798
   0.33333250  0.16666609  0.58294025
   0.33344889  0.66672034  0.58287682
   0.83329663  0.16651188  0.58286597
   0.83327695  0.66676291  0.58287603
   0.00001072  0.00001334  0.52870379
   0.00001124  0.49999737  0.52867815
   0.49999716 -0.00000266  0.52870682
   0.49998711  0.49999922  0.52869422
   0.33333471  0.16666743  0.41711516
   0.33332365  0.66665959  0.41711504
   0.83333826  0.16667670  0.41711439
   0.83333690  0.66665984  0.41711295
   0.16595096  0.33296278  0.63919853
   0.16624992  0.83302435  0.63888029
   0.66801567  0.33328584  0.63887675
   0.66679457  0.83356119  0.63930610
   0.33404768  0.11154628  0.72497094
   0.41812271  0.28291215  0.72438647
Direct configuration=    10
   0.16666334  0.33333769  0.38830651
   0.16666137  0.83332490  0.38830590
   0.66667354  0.33333690  0.38830506
   0.66666675  0.83333203  0.38830783
  -0.00081011 -0.00043234  0.61144972
  -0.00019158  0.49984478  0.61171235
   0.50037241 -0.00060416  0.61140529
   0.50030210  0.50054021  0.61174891
   0.33333683  0.16669973  0.49999603
   0.33330676  0.66661548  0.50001364
   0.83336670  0.16670740  0.50001566
   0.83331744  0.66663281  0.50001672
   0.16666851  0.33331943  0.47128023
   0.16668155  0.83335498  0.47128044
   0.66664876  0.33331456  0.47127834
   0.66666828  0.83334398  0.47128485
   0.00000990  0.00000501  0.36062376
  -0.00000444  0.49999701  0.36062458
   0.49999634  0.00000804  0.36062384
   0.49999691  0.49998850  0.36062399
   0.33334378  0.16668310  0.58295562
   0.33347237  0.66671567  0.58289157
   0.83328987  0.16648675  0.58287453
   0.83324870  0.66676269  0.58288920
   0.00000656  0.00001097  0.52871345
   0.00001066  0.49999672  0.52869021
   0.49999927 -0.00000624  0.52871721
   0.49998880  0.50000321  0.52870884
   0.33333450  0.16666752  0.41709756
   0.33332397  0.66665951  0.41709745
   0.83333835  0.16667635  0.41709689
   0.83333669  0.66666010  0.41709541
   0.16593880  0.33296272  0.63921711
   0.16623754  0.83301075  0.63888999
   0.66805321  0.33329139  0.63888730
   0.66678709  0.83355105  0.63933020
   0.33409715  0.11159165  0.72502342
   0.41807235  0.28292113  0.72441039
Direct configuration=    11
   0.16666250  0.33333752  0.38831364
   0.16666079  0.83332414  0.38831366
   0.66667458  0.33333722  0.38831257
   0.66666730  0.83333243  0.38831576
  -0.00071236 -0.00038829  0.61142872
  -0.00018270  0.49983639  0.61170427
   0.50031716 -0.00058958  0.61137613
   0.50023992  0.50043087  0.61173005
   0.33334803  0.16672456  0.50000698
   0.33328889  0.66658616  0.50000686
   0.83338368  0.16673622  0.50000548
   0.83330734  0.66660722  0.50001182
   0.16666703  0.33331532  0.47124019
   0.16668466  0.83335966  0.47124140
   0.66664565  0.33330943  0.47123888
   0.66666976  0.83334804  0.47124620
   0.00000888  0.00000455  0.36055185
  -0.00000372  0.49999720  0.36055226
   0.49999663  0.00000681  0.36055190
   0.49999704  0.49998976  0.36055203
   0.33337762  0.16673414  0.58300172
   0.33354282  0.66670165  0.58293582
   0.83326958  0.16641137  0.58290021
   0.83316393  0.66676203  0.58292869
  -0.00000592  0.00000386  0.52874243
   0.00000890  0.49999480  0.52872637
   0.50000563 -0.00001696  0.52874836
   0.49999387  0.50001521  0.52875268
   0.33333387  0.16666780  0.41704479
   0.33332492  0.66665929  0.41704467
   0.83333862  0.16667531  0.41704437
   0.83333609  0.66666087  0.41704281
   0.16590230  0.33296254  0.63927284
   0.16620039  0.83296995  0.63891911
   0.66816584  0.33330805  0.63891896
   0.66676466  0.83352065  0.63940251
   0.33424554  0.11172778  0.72518086
   0.41792127  0.28294807  0.72448214
Direct configuration=    12
   0.16666082  0.33333719  0.38832789
   0.16665963  0.83332262  0.38832916
   0.66667668  0.33333786  0.38832759
   0.66666842  0.83333324  0.38833163
  -0.00051686 -0.00030018  0.61138673
  -0.00016494  0.49981961  0.61168811
   0.50020666 -0.00056041  0.61131782
   0.50011556  0.50021218  0.61169234
   0.33337043  0.16677422  0.50002888
   0.33325314  0.66652753  0.49999329
   0.83341764  0.16679386  0.49998512
   0.83328712  0.66655604  0.50000201
   0.16666407  0.33330709  0.47116010
   0.16669087  0.83336903  0.47116331
   0.66663942  0.33329916  0.47115997
   0.66667273  0.83335616  0.47116890
   0.00000685  0.00000362  0.36040802
  -0.00000228  0.49999757  0.36040762
   0.49999721  0.00000434  0.36040804
   0.49999729  0.49999226  0.36040810
   0.33344531  0.16683621  0.58309393
   0.33368373  0.66667360  0.58302433
   0.83322901  0.16626062  0.58295159
   0.83299440  0.66676072  0.58300767
  -0.00003089 -0.00001036  0.52880040
   0.00000540  0.49999094  0.52879870
   0.50001833 -0.00003842  0.52881067
   0.50000402  0.50003919  0.52884036
   0.33333261  0.16666834  0.41693923
   0.33332683  0.66665884  0.41693911
   0.83333918  0.16667322  0.41693934
   0.83333489  0.66666241  0.41693760
   0.16582932  0.33296218  0.63938430
   0.16612609  0.83288836  0.63897735
   0.66839109  0.33334135  0.63898228
   0.66671979  0.83345984  0.63954713
   0.33454233  0.11200003  0.72549575
   0.41761911  0.28300195  0.72462565
Direct configuration=    13
   0.16665747  0.33333653  0.38835638
   0.16665730  0.83331958  0.38836017
   0.66668086  0.33333913  0.38835761
   0.66667066  0.83333486  0.38836337
  -0.00012585 -0.00012397  0.61130274
  -0.00012942  0.49978604  0.61165578
   0.49998565 -0.00050208  0.61120119
   0.49986685  0.49977481  0.61161690
   0.33341523  0.16687355  0.50007267
   0.33318164  0.66641026  0.49996616
   0.83348555  0.16690914  0.49994439
   0.83324669  0.66645368  0.49998240
   0.16665815  0.33329064  0.47099993
   0.16670329  0.83338776  0.47100715
   0.66662698  0.33327862  0.47100213
   0.66667866  0.83337241  0.47101430
   0.00000277  0.00000176  0.36012036
   0.00000060  0.49999831  0.36011834
   0.49999836 -0.00000059  0.36012030
   0.49999781  0.49999727  0.36012025
   0.33358069  0.16704035  0.58327834
   0.33396554  0.66661751  0.58320133
   0.83314787  0.16595911  0.58305433
   0.83265534  0.66675810  0.58316564
  -0.00008084 -0.00003880  0.52891634
  -0.00000162  0.49998323  0.52894336
   0.50004374 -0.00008132  0.52893528
   0.50002432  0.50008716  0.52901573
   0.33333009  0.16666943  0.41672812
   0.33333065  0.66665794  0.41672800
   0.83334028  0.16666905  0.41672927
   0.83333248  0.66666548  0.41672718
   0.16568334  0.33296145  0.63960723
   0.16597749  0.83272518  0.63909384
   0.66884160  0.33340796  0.63910892
   0.66663006  0.83333822  0.63983636
   0.33513592  0.11254454  0.72612552
   0.41701478  0.28310971  0.72491268
Direct configuration=    14
   0.16665866  0.33333677  0.38834621
   0.16665813  0.83332066  0.38834911
   0.66667937  0.33333868  0.38834690
   0.66666986  0.83333428  0.38835204
  -0.00026540 -0.00018686  0.61133271
  -0.00014210  0.49979802  0.61166732
   0.50006452 -0.00052290  0.61124281
   0.49995562  0.49993090  0.61164382
   0.33339924  0.16683810  0.50005704
   0.33320716  0.66645211  0.49997584
   0.83346131  0.16686800  0.49995893
   0.83326112  0.66649021  0.49998940
   0.16666026  0.33329651  0.47105710
   0.16669886  0.83338108  0.47106288
   0.66663142  0.33328595  0.47105846
   0.66667654  0.83336661  0.47106948
   0.00000423  0.00000242  0.36022302
  -0.00000043  0.49999805  0.36022158
   0.49999795  0.00000117  0.36022299
   0.49999762  0.49999548  0.36022298
   0.33353237  0.16696750  0.58321253
   0.33386497  0.66663753  0.58313816
   0.83317683  0.16606672  0.58301766
   0.83277635  0.66675903  0.58310926
  -0.00006301 -0.00002865  0.52887496
   0.00000088  0.49998598  0.52889174
   0.50003468 -0.00006601  0.52889081
   0.50001708  0.50007004  0.52895314
   0.33333099  0.16666904  0.41680347
   0.33332929  0.66665826  0.41680335
   0.83333989  0.16667054  0.41680424
   0.83333334  0.66666439  0.41680227
   0.16573544  0.33296171  0.63952767
   0.16603052  0.83278342  0.63905227
   0.66868082  0.33338419  0.63906373
   0.66666208  0.83338162  0.63973314
   0.33492407  0.11235021  0.72590076
   0.41723046  0.28307125  0.72481024
Direct configuration=    15
   0.16666033  0.33333502  0.38832845
   0.16665939  0.83332380  0.38833297
   0.66667630  0.33333749  0.38832960
   0.66667015  0.83333411  0.38833570
  -0.00024529 -0.00017911  0.61134060
  -0.00014030  0.49978713  0.61167717
   0.50005545 -0.00052796  0.61124638
   0.49993962  0.49990153  0.61165231
   0.33340274  0.16684724  0.50005869
   0.33320082  0.66644041  0.49997152
   0.83346830  0.16687688  0.49995300
   0.83325694  0.66648205  0.49998713
   0.16666309  0.33329581  0.47104873
   0.16670178  0.83338440  0.47105530
   0.66662703  0.33328353  0.47105051
   0.66667509  0.83336579  0.47106103
   0.00000311  0.00000231  0.36018215
  -0.00000020  0.49999773  0.36018055
   0.49999877  0.00000058  0.36018215
   0.49999783  0.49999657  0.36018210
   0.33355250  0.16699787  0.58323658
   0.33390176  0.66662393  0.58316029
   0.83316831  0.16602132  0.58302817
   0.83272684  0.66675710  0.58312835
  -0.00005710 -0.00002883  0.52887548
   0.00000226  0.49998732  0.52889838
   0.50002941 -0.00007097  0.52889250
   0.50001306  0.50006648  0.52896178
   0.33333134  0.16667078  0.41677516
   0.33332885  0.66665651  0.41677420
   0.83334099  0.16667174  0.41677470
   0.83333235  0.66666328  0.41677313
   0.16571568  0.33295964  0.63955906
   0.16601282  0.83276422  0.63906791
   0.66874094  0.33338869  0.63908221
   0.66664684  0.83336266  0.63977302
   0.33491492  0.11221161  0.72601214
   0.41723828  0.28332331  0.72486091
Direct configuration=    16
   0.16666275  0.33333250  0.38830274
   0.16666120  0.83332835  0.38830962
   0.66667187  0.33333578  0.38830455
   0.66667057  0.83333386  0.38831204
  -0.00021618 -0.00016789  0.61135203
  -0.00013771  0.49977136  0.61169144
   0.50004232 -0.00053529  0.61125154
   0.49991647  0.49985902  0.61166459
   0.33340781  0.16686046  0.50006107
   0.33319165  0.66642348  0.49996527
   0.83347842  0.16688974  0.49994441
   0.83325089  0.66647025  0.49998384
   0.16666718  0.33329480  0.47103662
   0.16670600  0.83338922  0.47104433
   0.66662066  0.33328002  0.47103900
   0.66667297  0.83336460  0.47104879
   0.00000148  0.00000216  0.36012299
   0.00000014  0.49999727  0.36012117
   0.49999995 -0.00000029  0.36012304
   0.49999813  0.49999814  0.36012294
   0.33358165  0.16704185  0.58327139
   0.33395502  0.66660424  0.58319232
   0.83315598  0.16595561  0.58304337
   0.83265517  0.66675430  0.58315597
  -0.00004854 -0.00002910  0.52887622
   0.00000425  0.49998925  0.52890799
   0.50002178 -0.00007815  0.52889496
   0.50000725  0.50006132  0.52897428
   0.33333184  0.16667330  0.41673419
   0.33332822  0.66665397  0.41673202
   0.83334259  0.16667348  0.41673193
   0.83333093  0.66666169  0.41673094
   0.16568707  0.33295665  0.63960449
   0.16598720  0.83273644  0.63909056
   0.66882796  0.33339522  0.63910897
   0.66662477  0.83333522  0.63983076
   0.33490168  0.11201100  0.72617337
   0.41724960  0.28368818  0.72493425
Direct configuration=    17
   0.16666366  0.33333155  0.38829306
   0.16666189  0.83333006  0.38830083
   0.66667020  0.33333514  0.38829512
   0.66667073  0.83333377  0.38830313
  -0.00020522 -0.00016367  0.61135633
  -0.00013673  0.49976543  0.61169681
   0.50003737 -0.00053805  0.61125349
   0.49990775  0.49984302  0.61166922
   0.33340972  0.16686544  0.50006197
   0.33318819  0.66641710  0.49996292
   0.83348222  0.16689459  0.49994118
   0.83324861  0.66646580  0.49998261
   0.16666872  0.33329442  0.47103206
   0.16670759  0.83339103  0.47104020
   0.66661827  0.33327870  0.47103467
   0.66667218  0.83336415  0.47104418
   0.00000087  0.00000210  0.36010071
   0.00000026  0.49999709  0.36009880
   0.50000040 -0.00000061  0.36010077
   0.49999825  0.49999874  0.36010066
   0.33359262  0.16705841  0.58328450
   0.33397508  0.66659682  0.58320438
   0.83315133  0.16593087  0.58304910
   0.83262818  0.66675325  0.58316638
  -0.00004532 -0.00002920  0.52887650
   0.00000500  0.49998998  0.52891161
   0.50001891 -0.00008085  0.52889589
   0.50000506  0.50005938  0.52897898
   0.33333203  0.16667425  0.41671876
   0.33332798  0.66665301  0.41671614
   0.83334319  0.16667414  0.41671583
   0.83333039  0.66666109  0.41671505
   0.16567630  0.33295552  0.63962160
   0.16597755  0.83272597  0.63909908
   0.66886073  0.33339767  0.63911904
   0.66661646  0.83332488  0.63985250
   0.33489669  0.11193545  0.72623409
   0.41725387  0.28382557  0.72496187
Direct configuration=    18
   0.16666694  0.33332847  0.38825717
   0.16666421  0.83333556  0.38826763
   0.66666441  0.33333286  0.38825989
   0.66667093  0.83333300  0.38826940
  -0.00022514 -0.00017448  0.61138091
  -0.00013965  0.49974832  0.61171848
   0.50005386 -0.00055574  0.61127462
   0.49991377  0.49985084  0.61169498
   0.33340982  0.16686779  0.50005875
   0.33318716  0.66641238  0.49995854
   0.83348499  0.16689386  0.49993571
   0.83324641  0.66646522  0.49998087
   0.16667446  0.33329513  0.47103512
   0.16671122  0.83339422  0.47104418
   0.66661199  0.33327672  0.47103826
   0.66666871  0.83336036  0.47104650
  -0.00000054  0.00000200  0.36005915
   0.00000031  0.49999624  0.36005714
   0.50000160 -0.00000125  0.36005931
   0.49999844  0.49999974  0.36005907
   0.33361281  0.16708825  0.58330547
   0.33400853  0.66657912  0.58322263
   0.83314510  0.16588246  0.58305489
   0.83257901  0.66675078  0.58318137
  -0.00002761 -0.00002641  0.52886354
   0.00000840  0.49999339  0.52890650
   0.50000548 -0.00008527  0.52888413
   0.49999489  0.50004645  0.52897333
   0.33333286  0.16667703  0.41669233
   0.33332662  0.66664968  0.41668823
   0.83334510  0.16667665  0.41668707
   0.83332892  0.66665853  0.41668709
   0.16565496  0.33295058  0.63965254
   0.16596354  0.83271126  0.63911435
   0.66891926  0.33339693  0.63913762
   0.66659972  0.83330575  0.63989129
   0.33500871  0.11202159  0.72636767
   0.41714079  0.28387402  0.72502425
Direct configuration=    19
   0.16667143  0.33332425  0.38820801
   0.16666739  0.83334310  0.38822217
   0.66665648  0.33332973  0.38821163
   0.66667120  0.83333194  0.38822319
  -0.00025244 -0.00018928  0.61141458
  -0.00014364  0.49972489  0.61174817
   0.50007645 -0.00057997  0.61130357
   0.49992201  0.49986155  0.61173025
   0.33340997  0.16687101  0.50005435
   0.33318574  0.66640590  0.49995255
   0.83348878  0.16689286  0.49992822
   0.83324340  0.66646443  0.49997849
   0.16668232  0.33329610  0.47103932
   0.16671619  0.83339860  0.47104965
   0.66660340  0.33327400  0.47104319
   0.66666396  0.83335518  0.47104966
  -0.00000249  0.00000186  0.36000223
   0.00000038  0.49999508  0.36000008
   0.50000325 -0.00000212  0.36000251
   0.49999870  0.50000111  0.36000212
   0.33364047  0.16712912  0.58333421
   0.33405435  0.66655486  0.58324763
   0.83313657  0.16581617  0.58306283
   0.83251165  0.66674739  0.58320192
  -0.00000335 -0.00002260  0.52884578
   0.00001306  0.49999805  0.52889950
   0.49998709 -0.00009133  0.52886802
   0.49998095  0.50002874  0.52896560
   0.33333400  0.16668084  0.41665613
   0.33332475  0.66664511  0.41665001
   0.83334770  0.16668008  0.41664767
   0.83332691  0.66665503  0.41664878
   0.16562573  0.33294380  0.63969491
   0.16594434  0.83269112  0.63913526
   0.66899944  0.33339591  0.63916306
   0.66657680  0.83327955  0.63994443
   0.33516216  0.11213957  0.72655064
   0.41698591  0.28394039  0.72510969
Direct configuration=    20
   0.16668041  0.33331582  0.38810969
   0.16667375  0.83335817  0.38813124
   0.66664063  0.33332348  0.38811510
   0.66667175  0.83332982  0.38813079
  -0.00030704 -0.00021890  0.61148191
  -0.00015164  0.49967803  0.61180753
   0.50012162 -0.00062844  0.61136148
   0.49993848  0.49988297  0.61180081
   0.33341025  0.16687745  0.50004554
   0.33318290  0.66639295  0.49994057
   0.83349635  0.16689087  0.49991324
   0.83323738  0.66646285  0.49997374
   0.16669804  0.33329804  0.47104771
   0.16672614  0.83340734  0.47106058
   0.66658620  0.33326857  0.47105303
   0.66665445  0.83334480  0.47105600
  -0.00000637  0.00000158  0.35988839
   0.00000052  0.49999274  0.35988595
   0.50000655 -0.00000386  0.35988891
   0.49999923  0.50000386  0.35988821
   0.33369578  0.16721088  0.58339168
   0.33414599  0.66650636  0.58329763
   0.83311951  0.16568357  0.58307870
   0.83237695  0.66674061  0.58324300
   0.00004517 -0.00001496  0.52881026
   0.00002238  0.50000737  0.52888550
   0.49995030 -0.00010345  0.52883580
   0.49995307  0.49999333  0.52895013
   0.33333629  0.16668845  0.41658373
   0.33332101  0.66663598  0.41657356
   0.83335291  0.16668696  0.41656888
   0.83332288  0.66664802  0.41657216
   0.16556726  0.33293025  0.63977966
   0.16590595  0.83265082  0.63917707
   0.66915979  0.33339388  0.63921395
   0.66653095  0.83322714  0.64005070
   0.33546905  0.11237553  0.72691658
   0.41667616  0.28407312  0.72528057
Direct configuration=    21
   0.16669838  0.33329894  0.38791305
   0.16668646  0.83338832  0.38794938
   0.66660892  0.33331097  0.38792206
   0.66667285  0.83332557  0.38794598
  -0.00041622 -0.00027812  0.61161659
  -0.00016762  0.49958431  0.61192626
   0.50021196 -0.00072538  0.61147728
   0.49997143  0.49992583  0.61194193