CeO2                                    
           1
     7.707464    0.000000    0.000000
    -3.853732    6.674860    0.000000
     0.000000    0.000000   28.319031
   Ce   O    C    O 
  12  24   1   1
Direct configuration=     1
   0.16666700  0.33333300  0.38888900
   0.16666700  0.83333300  0.38888900
   0.66666700  0.33333300  0.38888900
   0.66666700  0.83333300  0.38888900
   0.00000000  0.00000000  0.61111100
   0.00000000  0.50000000  0.61111100
   0.50000000  0.00000000  0.61111100
   0.50000000  0.50000000  0.61111100
   0.33333300  0.16666700  0.50000000
   0.33333300  0.66666700  0.50000000
   0.83333300  0.16666700  0.50000000
   0.83333300  0.66666700  0.50000000
   0.16666700  0.33333300  0.47222200
   0.16666700  0.83333300  0.47222200
   0.66666700  0.33333300  0.47222200
   0.66666700  0.83333300  0.47222200
   0.00000000  0.00000000  0.36111100
   0.00000000  0.50000000  0.36111100
   0.50000000  0.00000000  0.36111100
   0.50000000  0.50000000  0.36111100
   0.33333300  0.16666700  0.58333300
   0.33333300  0.66666700  0.58333300
   0.83333300  0.16666700  0.58333300
   0.83333300  0.66666700  0.58333300
   0.00000000  0.00000000  0.52777800
   0.00000000  0.50000000  0.52777800
   0.50000000  0.00000000  0.52777800
   0.50000000  0.50000000  0.52777800
   0.33333300  0.16666700  0.41666700
   0.33333300  0.66666700  0.41666700
   0.83333300  0.16666700  0.41666700
   0.83333300  0.66666700  0.41666700
   0.16666700  0.33333300  0.63888900
   0.16666700  0.83333300  0.63888900
   0.66666700  0.33333300  0.63888900
   0.66666700  0.83333300  0.63888900
   0.33333300  0.11111100  0.72389500
   0.18516500  0.11111100  0.72389500
Direct configuration=     2
   0.16666648  0.33333487  0.38861125
   0.16667039  0.83333319  0.38861073
   0.66666684  0.33333074  0.38861044
   0.66666429  0.83333446  0.38861131
  -0.00048179  0.00009448  0.61137107
   0.00002162  0.49976313  0.61138412
   0.50042036  0.00000650  0.61146225
   0.50010578  0.50035417  0.61129212
   0.33333545  0.16666738  0.49999412
   0.33332964  0.66666621  0.50000832
   0.83333490  0.16667111  0.50001039
   0.83333657  0.66666601  0.50000423
   0.16666220  0.33331731  0.47179308
   0.16667158  0.83334978  0.47179329
   0.66665772  0.33332256  0.47179555
   0.66667612  0.83334437  0.47179350
   0.00000482  0.00000661  0.36090529
   0.00000606  0.49999927  0.36090467
   0.49999756 -0.00000200  0.36090443
   0.49999231  0.49999753  0.36090456
   0.33331676  0.16662351  0.58313858
   0.33334242  0.66671129  0.58311314
   0.83331265  0.16665824  0.58310648
   0.83337980  0.66670460  0.58311853
   0.00000873  0.00000712  0.52820064
  -0.00001193  0.49999059  0.52819860
   0.50000158  0.00001992  0.52819485
   0.49999561  0.49997766  0.52820276
   0.33332815  0.16666745  0.41688603
   0.33332996  0.66666228  0.41688159
   0.83334021  0.16666936  0.41688538
   0.83333626  0.66666971  0.41688329
   0.16682445  0.33392709  0.63889376
   0.16660178  0.83289494  0.63901271
   0.66671297  0.33366805  0.63900774
   0.66663975  0.83321324  0.63905012
   0.33508048  0.11039237  0.72402123
   0.18321947  0.11120691  0.72422981
Direct configuration=     3
   0.16666677  0.33333382  0.38876698
   0.16666849  0.83333308  0.38876675
   0.66666693  0.33333201  0.38876662
   0.66666581  0.83333364  0.38876701
  -0.00021166  0.00004151  0.61122525
   0.00000950  0.49989594  0.61123099
   0.50018467  0.00000286  0.61126531
   0.50004647  0.50015559  0.61119057
   0.33333408  0.16666717  0.49999742
   0.33333152  0.66666665  0.50000365
   0.83333383  0.16666881  0.50000456
   0.83333457  0.66666657  0.50000186
   0.16666489  0.33332611  0.47203357
   0.16666901  0.83334037  0.47203366
   0.66666292  0.33332842  0.47203465
   0.66667101  0.83333799  0.47203375
   0.00000212  0.00000290  0.36102063
   0.00000266  0.49999968  0.36102036
   0.49999893 -0.00000088  0.36102025
   0.49999662  0.49999891  0.36102031
   0.33332587  0.16664789  0.58324759
   0.33333714  0.66668646  0.58323641
   0.83332406  0.16666315  0.58323349
   0.83335356  0.66668352  0.58323878
   0.00000384  0.00000313  0.52796367
  -0.00000524  0.49999587  0.52796278
   0.50000069  0.00000875  0.52796113
   0.49999807  0.49999019  0.52796461
   0.33333087  0.16666720  0.41676322
   0.33333167  0.66666493  0.41676128
   0.83333617  0.16666804  0.41676294
   0.83333443  0.66666819  0.41676202
   0.16673617  0.33359400  0.63889109
   0.16663835  0.83314055  0.63894335
   0.66668720  0.33348019  0.63894117
   0.66665503  0.83328039  0.63895978
   0.33410070  0.11079529  0.72395046
   0.18431029  0.11115314  0.72404209
Direct configuration=     4
   0.16666648  0.33333425  0.38868671
   0.16666909  0.83333290  0.38868632
   0.66666717  0.33333159  0.38868619
   0.66666531  0.83333398  0.38868676
  -0.00034349  0.00006917  0.61129995
   0.00002088  0.49983533  0.61130958
   0.50029799  0.00000444  0.61136600
   0.50007580  0.50025540  0.61124066
   0.33333493  0.16666504  0.49999658
   0.33332979  0.66666827  0.50000584
   0.83333309  0.16667008  0.50000624
   0.83333751  0.66666646  0.50000288
   0.16666410  0.33332262  0.47190498
   0.16666978  0.83334412  0.47190511
   0.66666077  0.33332648  0.47190658
   0.66667306  0.83334005  0.47190523
   0.00000317  0.00000434  0.36095552
   0.00000397  0.49999942  0.36095509
   0.49999845 -0.00000132  0.36095493
   0.49999493  0.49999831  0.36095505
   0.33331921  0.16663288  0.58319449
   0.33334495  0.66670420  0.58317420
   0.83331554  0.16665665  0.58317085
   0.83336770  0.66669876  0.58317857
   0.00000449  0.00000456  0.52809132
  -0.00000840  0.49999306  0.52808930
   0.50000206  0.00001371  0.52808708
   0.49999755  0.49998540  0.52809208
   0.33332991  0.16666733  0.41682397
   0.33333102  0.66666377  0.41682104
   0.83333775  0.16666853  0.41682350
   0.83333509  0.66666862  0.41682216
   0.16678064  0.33377477  0.63889392
   0.16662139  0.83300869  0.63898323
   0.66670015  0.33357926  0.63898009
   0.66664876  0.83324815  0.63901145
   0.33387055  0.11056824  0.72398955
   0.18447684  0.11118450  0.72414699
Direct configuration=     5
   0.16666560  0.33333554  0.38844592
   0.16667088  0.83333233  0.38844502
   0.66666788  0.33333035  0.38844489
   0.66666380  0.83333502  0.38844604
  -0.00073896  0.00015216  0.61152403
   0.00005504  0.49965349  0.61154535
   0.50063793  0.00000919  0.61166807
   0.50016380  0.50055484  0.61139091
   0.33333748  0.16665864  0.49999405
   0.33332461  0.66667312  0.50001241
   0.83333086  0.16667389  0.50001128
   0.83334635  0.66666613  0.50000593
   0.16666174  0.33331218  0.47151921
   0.16667208  0.83335536  0.47151948
   0.66665432  0.33332069  0.47152234
   0.66667921  0.83334621  0.47151969
   0.00000634  0.00000864  0.36076020
   0.00000789  0.49999864  0.36075929
   0.49999700 -0.00000266  0.36075898
   0.49998986  0.49999648  0.36075929
   0.33329925  0.16658783  0.58303520
   0.33336839  0.66675742  0.58298758
   0.83328999  0.16663715  0.58298295
   0.83341012  0.66674448  0.58299793
   0.00000644  0.00000886  0.52847425
  -0.00001789  0.49998462  0.52846885
   0.50000616  0.00002857  0.52846492
   0.49999598  0.49997106  0.52847450
   0.33332705  0.16666773  0.41700620
   0.33332909  0.66666030  0.41700034
   0.83334249  0.16667003  0.41700519
   0.83333706  0.66666992  0.41700259
   0.16691404  0.33431708  0.63890241
   0.16657053  0.83261309  0.63910287
   0.66673902  0.33387646  0.63909688
   0.66662998  0.83315146  0.63916646
   0.33318010  0.10988711  0.72410683
   0.18497649  0.11127859  0.72446170
Direct configuration=     6
   0.16666522  0.33333609  0.38834203
   0.16667165  0.83333209  0.38834091
   0.66666819  0.33332982  0.38834079
   0.66666315  0.83333546  0.38834219
  -0.00090958  0.00018797  0.61162071
   0.00006978  0.49957504  0.61164706
   0.50078459  0.00001124  0.61179839
   0.50020176  0.50068402  0.61145574
   0.33333858  0.16665589  0.49999296
   0.33332237  0.66667522  0.50001524
   0.83332989  0.16667554  0.50001345
   0.83335016  0.66666599  0.50000724
   0.16666072  0.33330767  0.47135278
   0.16667307  0.83336020  0.47135310
   0.66665153  0.33331819  0.47135657
   0.66668187  0.83334887  0.47135335
   0.00000771  0.00001050  0.36067593
   0.00000958  0.49999830  0.36067481
   0.49999638 -0.00000323  0.36067445
   0.49998768  0.49999570  0.36067483
   0.33329064  0.16656839  0.58296648
   0.33337850  0.66678038  0.58290706
   0.83327897  0.16662873  0.58290189
   0.83342842  0.66676421  0.58292000
   0.00000729  0.00001071  0.52863945
  -0.00002198  0.49998099  0.52863259
   0.50000793  0.00003499  0.52862794
   0.49999530  0.49996487  0.52863948
   0.33332581  0.16666791  0.41708482
   0.33332826  0.66665881  0.41707770
   0.83334453  0.16667067  0.41708357
   0.83333790  0.66667048  0.41708043
   0.16697160  0.33455105  0.63890607
   0.16654859  0.83244242  0.63915449
   0.66675579  0.33400468  0.63914726
   0.66662187  0.83310974  0.63923333
   0.33288222  0.10959325  0.72415743
   0.18519206  0.11131918  0.72459747
Direct configuration=     7
   0.16666479  0.33333623  0.38834378
   0.16667088  0.83333153  0.38834289
   0.66666903  0.33333058  0.38834279
   0.66666359  0.83333551  0.38834421
  -0.00084400  0.00017420  0.61160605
   0.00009141  0.49964886  0.61164276
   0.50070641  0.00002344  0.61179457
   0.50020240  0.50064756  0.61143680
   0.33333987  0.16664097  0.50000030
   0.33331958  0.66668987  0.50001383
   0.83331989  0.16667506  0.50000435
   0.83336206  0.66666810  0.50000668
   0.16666087  0.33330896  0.47132526
   0.16667059  0.83335800  0.47132482
   0.66665368  0.33332138  0.47132812
   0.66668218  0.83334705  0.47132589
   0.00000741  0.00001008  0.36063490
   0.00000864  0.49999820  0.36063370
   0.49999688 -0.00000245  0.36063342
   0.49998859  0.49999573  0.36063387
   0.33327257  0.16654949  0.58299474
   0.33342487  0.66682297  0.58292289
   0.83325718  0.16659186  0.58292849
   0.83343085  0.66680418  0.58293834
  -0.00000635  0.00001411  0.52867019
  -0.00002418  0.49997173  0.52865863
   0.50002180  0.00003703  0.52865869
   0.49999852  0.49997295  0.52866374
   0.33332715  0.16666835  0.41705962
   0.33332868  0.66665935  0.41705330
   0.83334345  0.16667084  0.41705882
   0.83333729  0.66666955  0.41705576
   0.16696312  0.33459641  0.63892525
   0.16654763  0.83240603  0.63918619
   0.66676549  0.33402662  0.63917869
   0.66664057  0.83313370  0.63927474
   0.33278878  0.10944448  0.72418068
   0.18524580  0.11134351  0.72466226
Direct configuration=     8
   0.16666352  0.33333664  0.38834902
   0.16666858  0.83332984  0.38834883
   0.66667157  0.33333286  0.38834881
   0.66666492  0.83333565  0.38835027
  -0.00064726  0.00013288  0.61156208
   0.00015631  0.49987030  0.61162986
   0.50047185  0.00006003  0.61178313
   0.50020432  0.50053817  0.61138000
   0.33334373  0.16659620  0.50002231
   0.33331121  0.66673384  0.50000959
   0.83328988  0.16667362  0.49997706
   0.83339776  0.66667444  0.50000499
   0.16666132  0.33331283  0.47124272
   0.16666316  0.83335140  0.47123996
   0.66666011  0.33333097  0.47124276
   0.66668313  0.83334160  0.47124349
   0.00000650  0.00000883  0.36051180
   0.00000582  0.49999790  0.36051038
   0.49999839 -0.00000010  0.36051034
   0.49999131  0.49999583  0.36051098
   0.33321835  0.16649278  0.58307953
   0.33356399  0.66695077  0.58297038
   0.83319180  0.16648123  0.58300830
   0.83343817  0.66692408  0.58299335
  -0.00004726  0.00002429  0.52876241
  -0.00003075  0.49994397  0.52873673
   0.50006341  0.00004314  0.52875094
   0.50000819  0.49999718  0.52873649
   0.33333119  0.16666969  0.41698401
   0.33332994  0.66666099  0.41698009
   0.83334020  0.16667132  0.41698454
   0.83333545  0.66666679  0.41698174
   0.16693767  0.33473250  0.63898280
   0.16654476  0.83229685  0.63928130
   0.66679459  0.33409247  0.63927300
   0.66669667  0.83320557  0.63939897
   0.33250846  0.10899817  0.72425041
   0.18540702  0.11141649  0.72485663
Direct configuration=     9
   0.16666097  0.33333746  0.38835951
   0.16666397  0.83332647  0.38836072
   0.66667664  0.33333742  0.38836083
   0.66666759  0.83333594  0.38836240
  -0.00025377  0.00005023  0.61147414
   0.00028611  0.50031319  0.61160405
   0.50000272  0.00013323  0.61176024
   0.50020816  0.50031940  0.61126640
   0.33335146  0.16650668  0.50006634
   0.33329446  0.66682176  0.50000112
   0.83322987  0.16667074  0.49992249
   0.83346914  0.66668711  0.50000160
   0.16666223  0.33332058  0.47107763
   0.16664830  0.83333818  0.47107024
   0.66667299  0.33335014  0.47107205
   0.66668501  0.83333069  0.47107870
   0.00000469  0.00000633  0.36026560
   0.00000019  0.49999730  0.36026373
   0.50000140  0.00000459  0.36026419
   0.49999677  0.49999603  0.36026521
   0.33310991  0.16637937  0.58324910
   0.33384223  0.66720636  0.58306536
   0.83306105  0.16625998  0.58316791
   0.83345281  0.66716389  0.58310338
  -0.00012908  0.00004466  0.52894684
  -0.00004389  0.49988843  0.52889292
   0.50014664  0.00005536  0.52893545
   0.50002752  0.50004565  0.52888200
   0.33333925  0.16667236  0.41683278
   0.33333247  0.66666426  0.41683369
   0.83333370  0.16667229  0.41683599
   0.83333177  0.66666126  0.41683370
   0.16688679  0.33500468  0.63909790
   0.16653902  0.83207849  0.63947152
   0.66685278  0.33422415  0.63946160
   0.66680887  0.83334933  0.63964744
   0.33194781  0.10810555  0.72438987
   0.18572947  0.11156244  0.72524537
Direct configuration=    10
   0.16666171  0.33333723  0.38835646
   0.16666530  0.83332745  0.38835727
   0.66667517  0.33333609  0.38835734
   0.66666681  0.83333585  0.38835888
  -0.00036799  0.00007422  0.61149967
   0.00024843  0.50018463  0.61161154
   0.50013889  0.00011198  0.61176688
   0.50020704  0.50038291  0.61129938
   0.33334922  0.16653266  0.50005356
   0.33329932  0.66679624  0.50000358
   0.83324729  0.16667158  0.49993833
   0.83344842  0.66668343  0.50000259
   0.16666197  0.33331833  0.47112555
   0.16665261  0.83334202  0.47111950
   0.66666925  0.33334457  0.47112160
   0.66668446  0.83333386  0.47112654
   0.00000521  0.00000705  0.36033707
   0.00000182  0.49999748  0.36033533
   0.50000053  0.00000323  0.36033564
   0.49999519  0.49999597  0.36033655
   0.33314139  0.16641229  0.58319988
   0.33376146  0.66713217  0.58303779
   0.83309900  0.16632421  0.58312158
   0.83344856  0.66709428  0.58307144
  -0.00010533  0.00003875  0.52889330
  -0.00004008  0.49990455  0.52884758
   0.50012248  0.00005181  0.52888189
   0.50002191  0.50003158  0.52883976
   0.33333691  0.16667159  0.41687668
   0.33333174  0.66666331  0.41687619
   0.83333558  0.16667201  0.41687911
   0.83333284  0.66666286  0.41687667
   0.16690156  0.33492567  0.63906449
   0.16654068  0.83214187  0.63941631
   0.66683589  0.33418593  0.63940686
   0.66677630  0.83330760  0.63957532
   0.33211055  0.10836465  0.72434939
   0.18563587  0.11152007  0.72513253
Direct configuration=    11
   0.16666600  0.33333739  0.38833740
   0.16666586  0.83332983  0.38833691
   0.66667152  0.33333712  0.38833738
   0.66666583  0.83333262  0.38833917
  -0.00033835  0.00006609  0.61150352
   0.00026644  0.50024030  0.61162423
   0.50009459  0.00012381  0.61178381
   0.50021656  0.50037626  0.61130276
   0.33334980  0.16651949  0.50005759
   0.33329831  0.66681029  0.50000250
   0.83323796  0.16667139  0.49993403
   0.83345919  0.66668593  0.50000007
   0.16666467  0.33331738  0.47111030
   0.16665070  0.83334379  0.47110404
   0.66666775  0.33334745  0.47110526
   0.66668558  0.83333108  0.47111054
   0.00000405  0.00000595  0.36028572
   0.00000043  0.49999732  0.36028387
   0.50000159  0.00000394  0.36028431
   0.49999695  0.49999669  0.36028521
   0.33311618  0.16638267  0.58323385
   0.33382337  0.66719603  0.58305414
   0.83306808  0.16628022  0.58315325
   0.83345757  0.66714864  0.58309119
  -0.00011019  0.00004538  0.52890959
  -0.00004296  0.49989855  0.52885996
   0.50013088  0.00006232  0.52889908
   0.50002438  0.50002998  0.52884828
   0.33333854  0.16667034  0.41684515
   0.33333201  0.66666558  0.41684408
   0.83333321  0.16667180  0.41684594
   0.83333342  0.66666222  0.41684462
   0.16689637  0.33497978  0.63908718
   0.16653729  0.83210294  0.63945796
   0.66684410  0.33421787  0.63944474
   0.66680254  0.83333694  0.63962575
   0.33223984  0.10813809  0.72438395
   0.18544796  0.11155852  0.72523267
Direct configuration=    12
   0.16666807  0.33333747  0.38832818
   0.16666614  0.83333098  0.38832707
   0.66666975  0.33333761  0.38832773
   0.66666536  0.83333106  0.38832965
  -0.00032403  0.00006216  0.61150538
   0.00027514  0.50026720  0.61163037
   0.50007317  0.00012953  0.61179199
   0.50022116  0.50037305  0.61130440
   0.33335008  0.16651313  0.50005954
   0.33329781  0.66681708  0.50000198
   0.83323345  0.16667130  0.49993195
   0.83346440  0.66668714  0.49999885
   0.16666597  0.33331692  0.47110292
   0.16664978  0.83334465  0.47109657
   0.66666702  0.33334884  0.47109736
   0.66668612  0.83332974  0.47110280
   0.00000349  0.00000542  0.36026090
  -0.00000024  0.49999724  0.36025900
   0.50000211  0.00000428  0.36025949
   0.49999780  0.49999703  0.36026039
   0.33310399  0.16636836  0.58325027
   0.33385330  0.66722691  0.58306205
   0.83305314  0.16625895  0.58316856
   0.83346192  0.66717491  0.58310073
  -0.00011255  0.00004858  0.52891746
  -0.00004435  0.49989565  0.52886595
   0.50013495  0.00006740  0.52890739
   0.50002557  0.50002920  0.52885240
   0.33333933  0.16666973  0.41682991
   0.33333214  0.66666668  0.41682856
   0.83333206  0.16667171  0.41682991
   0.83333371  0.66666190  0.41682912
   0.16689386  0.33500594  0.63909814
   0.16653565  0.83208412  0.63947809
   0.66684806  0.33423331  0.63946306
   0.66681522  0.83335112  0.63965013
   0.33230233  0.10802857  0.72440066
   0.18535712  0.11157711  0.72528108
Direct configuration=    13
   0.16667221  0.33333762  0.38830975
   0.16666668  0.83333328  0.38830739
   0.66666623  0.33333860  0.38830844
   0.66666441  0.83332793  0.38831060
  -0.00029538  0.00005430  0.61150911
   0.00029255  0.50032102  0.61164264
   0.50003033  0.00014096  0.61180835
   0.50023036  0.50036662  0.61130767
   0.33335064  0.16650040  0.50006345
   0.33329683  0.66683067  0.50000093
   0.83322443  0.16667112  0.49992780
   0.83347481  0.66668956  0.49999641
   0.16666858  0.33331600  0.47108817
   0.16664793  0.83334636  0.47108162
   0.66666557  0.33335162  0.47108155
   0.66668720  0.83332705  0.47108733
   0.00000237  0.00000436  0.36021126
  -0.00000158  0.49999709  0.36020925
   0.50000314  0.00000496  0.36020986
   0.49999950  0.49999772  0.36021075
   0.33307962  0.16633972  0.58328311
   0.33391316  0.66728865  0.58307786
   0.83302324  0.16621642  0.58319918
   0.83347063  0.66722746  0.58311982
  -0.00011725  0.00005499  0.52893320
  -0.00004713  0.49988984  0.52887791
   0.50014307  0.00007756  0.52892402
   0.50002796  0.50002765  0.52886064
   0.33334090  0.16666852  0.41679943
   0.33333240  0.66666888  0.41679752
   0.83332976  0.16667151  0.41679784
   0.83333428  0.66666128  0.41679813
   0.16688885  0.33505826  0.63912007
   0.16653236  0.83204649  0.63951836
   0.66685600  0.33426420  0.63949969
   0.66684058  0.83337948  0.63969890
   0.33242733  0.10780954  0.72443408
   0.18517545  0.11161429  0.72537790
Direct configuration=    14
   0.16666936  0.33333752  0.38832242
   0.16666631  0.83333170  0.38832093
   0.66666865  0.33333792  0.38832171
   0.66666506  0.83333008  0.38832370
  -0.00031508  0.00005971  0.61150655
   0.00028058  0.50028401  0.61163420
   0.50005979  0.00013310  0.61179710
   0.50022403  0.50037104  0.61130542
   0.33335025  0.16650915  0.50006076
   0.33329751  0.66682133  0.50000165
   0.83323063  0.16667125  0.49993066
   0.83346765  0.66668790  0.49999809
   0.16666678  0.33331663  0.47109831
   0.16664920  0.83334518  0.47109190
   0.66666657  0.33334971  0.47109242
   0.66668646  0.83332890  0.47109797
   0.00000314  0.00000509  0.36024540
  -0.00000066  0.49999719  0.36024346
   0.50000243  0.00000449  0.36024399
   0.49999833  0.49999725  0.36024489
   0.33309638  0.16635941  0.58326053
   0.33387200  0.66724619  0.58306698
   0.83304380  0.16624567  0.58317812
   0.83346464  0.66719133  0.58310670
  -0.00011402  0.00005059  0.52892238
  -0.00004521  0.49989383  0.52886968
   0.50013748  0.00007057  0.52891259
   0.50002631  0.50002872  0.52885498
   0.33333982  0.16666935  0.41682039
   0.33333222  0.66666737  0.41681886
   0.83333134  0.16667165  0.41681989
   0.83333389  0.66666171  0.41681944
   0.16689230  0.33502228  0.63910499
   0.16653462  0.83207237  0.63949067
   0.66685054  0.33424296  0.63947450
   0.66682314  0.83335998  0.63966536
   0.33234137  0.10796016  0.72441110
   0.18530038  0.11158872  0.72531132
Direct configuration=    15
   0.16667788  0.33333754  0.38827966
   0.16666854  0.83333669  0.38827500
   0.66666077  0.33333852  0.38827666
   0.66666257  0.83332393  0.38827916
  -0.00033947  0.00006278  0.61153578
   0.00029113  0.50030330  0.61166653
   0.50007161  0.00014075  0.61183820
   0.50024254  0.50040761  0.61133787
   0.33334969  0.16650047  0.50005941
   0.33329880  0.66683183  0.50000049
   0.83322416  0.16667160  0.49993273
   0.83347525  0.66669040  0.49999287
   0.16667200  0.33331285  0.47110002
   0.16664876  0.83335175  0.47109435
   0.66666064  0.33335100  0.47109308
   0.66668836  0.83332576  0.47109806
   0.00000128  0.00000321  0.36019069
  -0.00000207  0.49999696  0.36018867
   0.50000378  0.00000460  0.36018928
   0.50000065  0.49999849  0.36019006
   0.33306791  0.16632238  0.58329431
   0.33394126  0.66732449  0.58308016
   0.83300701  0.16620318  0.58320918
   0.83348036  0.66725179  0.58312366
  -0.00010582  0.00006052  0.52891801
  -0.00004840  0.49989322  0.52886416
   0.50013696  0.00009092  0.52891021
   0.50002697  0.50001348  0.52884346
   0.33334140  0.16666588  0.41678759
   0.33333211  0.66667124  0.41678379
   0.83332788  0.16667090  0.41678316
   0.83333608  0.66666144  0.41678479
   0.16689404  0.33508229  0.63912723
   0.16652871  0.83203462  0.63953724
   0.66685589  0.33428424  0.63951347
   0.66685212  0.83338741  0.63971734
   0.33220645  0.10767932  0.72445503
   0.18536020  0.11163464  0.72543863
Direct configuration=    16
   0.16670343  0.33333761  0.38815138
   0.16667526  0.83335166  0.38813722
   0.66663714  0.33334032  0.38814153
   0.66665509  0.83330547  0.38814556
  -0.00041265  0.00007201  0.61162349
   0.00032279  0.50036115  0.61176350
   0.50010708  0.00016370  0.61196150
   0.50029808  0.50051731  0.61143522
   0.33334798  0.16647442  0.50005534
   0.33330270  0.66686333  0.49999703
   0.83320473  0.16667267  0.49993896
   0.83349806  0.66669790  0.49997723
   0.16668763  0.33330153  0.47110513
   0.16664745  0.83337144  0.47110172
   0.66664285  0.33335487  0.47109505
   0.66669405  0.83331634  0.47109830
  -0.00000430 -0.00000244  0.36002656
  -0.00000633  0.49999626  0.36002431
   0.50000785  0.00000492  0.36002517
   0.50000761  0.50000223  0.36002556
   0.33298250  0.16621128  0.58339566
   0.33414904  0.66755939  0.58311971
   0.83289663  0.16607572  0.58330236
   0.83352749  0.66743317  0.58317453
  -0.00008125  0.00009033  0.52890491
  -0.00005797  0.49989138  0.52884758
   0.50013541  0.00015197  0.52890307
   0.50002895  0.49996777  0.52880891
   0.33334616  0.16665548  0.41668921
   0.33333177  0.66668286  0.41667858
   0.83331750  0.16666866  0.41667296
   0.83334266  0.66666064  0.41668083
   0.16689927  0.33526231  0.63919395
   0.16651099  0.83192137  0.63967694
   0.66687193  0.33440809  0.63963038
   0.66693906  0.83346972  0.63987326
   0.33180169  0.10683680  0.72458683
   0.18553966  0.11177237  0.72582056
Direct configuration=    17
   0.16675454  0.33333775  0.38789482
   0.16668870  0.83338160  0.38786167
   0.66658987  0.33334391  0.38787125
   0.66664012  0.83326855  0.38787835
  -0.00055901  0.00009046  0.61179891
   0.00038611  0.50047685  0.61195745
   0.50017803  0.00020959  0.61220811
   0.50040915  0.50073672  0.61162993
   0.33334457  0.16642233  0.50004721
   0.33331049  0.66692633  0.49999009
   0.83316588  0.16667481  0.49995141
   0.83354367  0.66671291  0.49994596
   0.16671891  0.33327887  0.47111537
   0.16664483  0.83341081  0.47111645
   0.66660728  0.33336262  0.47109900
   0.66670543  0.83329751  0.47109880
  -0.00001546 -0.00001373  0.35969829
  -0.00001485  0.49999487  0.35969558
   0.50001598  0.00000557  0.35969694
   0.50002153  0.50000970  0.35969658
   0.33281167  0.16598908  0.58359836
   0.33456460  0.66802920  0.58319879
   0.83267589  0.16582079  0.58348872
   0.83362176  0.66779594  0.58327629
  -0.00003209  0.00014994  0.52887871
  -0.00007710  0.49988771  0.52881443
   0.50013229  0.00027407  0.52888879
   0.50003291  0.49987634  0.52873980
   0.33335569  0.16663466  0.41649243
   0.33333109  0.66670610  0.41646815
   0.83329673  0.16666418  0.41645257
   0.83335583  0.66665903  0.41647291
   0.16690972  0.33562236  0.63932739
   0.16647555  0.83169487  0.63995634
   0.66690401  0.33465579  0.63986421
   0.66711295  0.83363432  0.64018511
   0.33099216  0.10515176  0.72485042
   0.18589859  0.11204785  0.72658441
Direct configuration=    18
   0.16685674  0.33333803  0.38738169
   0.16671557  0.83344149  0.38731056
   0.66649533  0.33335110  0.38733070
   0.66661020  0.83319471  0.38734394
  -0.00085173  0.00012736  0.61214975
   0.00051276  0.50070825  0.61234536
   0.50031993  0.00030139  0.61270133
   0.50063128  0.50117555  0.61201934
   0.33333775  0.16631814  0.50003095
   0.33332606  0.66705232  0.49997621
   0.83308818  0.16667909  0.49997630
   0.83363488  0.66674292  0.49988340
   0.16678145  0.33323356  0.47113583
   0.16663958  0.83348957  0.47114592
   0.66653613  0.33337811  0.47110688
   0.66672820  0.83325984  0.47109980
  -0.00003778 -0.00003631  0.35904177
  -0.00003188  0.49999208  0.35903812
   0.50003223  0.00000687  0.35904047
   0.50004938  0.50002463  0.35903861
   0.33247001  0.16554468  0.58400375
   0.33539573  0.66896880  0.58335695
   0.83223439  0.16531094  0.58386144
   0.83381029  0.66852147  0.58347981
   0.00006622  0.00026917  0.52882632
  -0.00011536  0.49988036  0.52874813
   0.50012605  0.00051828  0.52886024
   0.50004083  0.49969349  0.52860158
   0.33337473  0.16659302  0.41609888
   0.33332973  0.66675258  0.41604729
   0.83325519  0.16665522  0.41601179
   0.83338216  0.66665581  0.41605707
   0.16693063  0.33634245  0.63959426
   0.16640468  0.83124186  0.64051514
   0.66696818  0.33515118  0.64033186
   0.66746072  0.83396353  0.64080882
   0.32937310  0.10178167  0.72537761
   0.18661645  0.11259880  0.72811213
Direct configuration=    19
   0.16690590  0.33333817  0.38713490
   0.16672850  0.83347029  0.38704550
   0.66644986  0.33335455  0.38707072
   0.66659580  0.83315919  0.38708692
  -0.00099251  0.00014511  0.61231848
   0.00057367  0.50081955  0.61253192
   0.50038817  0.00034553  0.61293855
   0.50073812  0.50138660  0.61220663
   0.33333447  0.16626803  0.50002313
   0.33333356  0.66711292  0.49996953
   0.83305081  0.16668115  0.49998828
   0.83367875  0.66675736  0.49985332
   0.16681153  0.33321177  0.47114567
   0.16663706  0.83352744  0.47116009
   0.66650191  0.33338556  0.47111068
   0.66673915  0.83324172  0.47110028
  -0.00004851 -0.00004717  0.35872601
  -0.00004007  0.49999074  0.35872191
   0.50004005  0.00000749  0.35872474
   0.50006278  0.50003182  0.35872216
   0.33230569  0.16533094  0.58419873
   0.33579547  0.66942071  0.58343302
   0.83202205  0.16506572  0.58404070
   0.83390097  0.66887042  0.58357769
   0.00011350  0.00032651  0.52880112
  -0.00013376  0.49987683  0.52871625
   0.50012305  0.00063573  0.52884651
   0.50004464  0.49960555  0.52853511
   0.33338388  0.16657299  0.41590959
   0.33332907  0.66677493  0.41584488
   0.83323521  0.16665091  0.41579980
   0.83339483  0.66665427  0.41585707
   0.16694069  0.33668879  0.63972261
   0.16637059  0.83102399  0.64078390
   0.66699904  0.33538944  0.64055678
   0.66762798  0.83412186  0.64110879
   0.32859441  0.10016081  0.72563116
   0.18696171  0.11286379  0.72884689
Direct configuration=    20
   0.16672660  0.33331193  0.38711513
   0.16671439  0.83340013  0.38699425
   0.66659030  0.33330136  0.38703720
   0.66665261  0.83331133  0.38705337
  -0.00103788  0.00022859  0.61234273
   0.00056716  0.50083612  0.61251433
   0.50046049  0.00041773  0.61297949
   0.50075900  0.50148219  0.61219089
   0.33336497  0.16643963  0.49999173
   0.33350043  0.66707562  0.49989391
   0.83305652  0.16663059  0.49992226
   0.83350602  0.66676629  0.49978223
   0.16672840  0.33323335  0.47106079
   0.16664609  0.83348899  0.47107386
   0.66659056  0.33336742  0.47101864
   0.66674347  0.83332619  0.47102782
  -0.00000377 -0.00004846  0.35858457
  -0.00001096  0.50002886  0.35858349
   0.49998872 -0.00000658  0.35857586
   0.50004342  0.50001045  0.35857850
   0.33238488  0.16546983  0.58428871
   0.33582729  0.66942478  0.58352271
   0.83203171  0.16524129  0.58409263
   0.83384275  0.66880097  0.58365573
   0.00012579  0.00045920  0.52882306
  -0.00013918  0.49982688  0.52881128
   0.50019315  0.00080322  0.52885701
   0.50001995  0.49952082  0.52863805
   0.33336798  0.16655894  0.41578020
   0.33331996  0.66677970  0.41573032
   0.83324510  0.16665289  0.41570540
   0.83341559  0.66667116  0.41573273
   0.16706490  0.33689289  0.63983012
   0.16620119  0.83086412  0.64092123
   0.66714480  0.33571222  0.64064058
   0.66756739  0.83396133  0.64124499
   0.32705784  0.09903062  0.72583804
   0.18824037  0.11294942  0.72935618
Direct configuration=    21
   0.16685053  0.33333007  0.38712880
   0.16672414  0.83344862  0.38702967
   0.66649323  0.33333813  0.38706037
   0.66661335  0.83320618  0.38707656
  -0.00100652  0.00017089  0.61232597
   0.00057166  0.50082466  0.61252649
   0.50041051  0.00036783  0.61295119
   0.50074457  0.50141612  0.61220177