CeO2                                    
           1
     7.707464    0.000000    0.000000
    -3.853732    6.674860    0.000000
     0.000000    0.000000   28.319031
   Ce   O    C    O 
  12  24   1   1
Direct configuration=     1
   0.16666700  0.33333300  0.38888900
   0.16666700  0.83333300  0.38888900
   0.66666700  0.33333300  0.38888900
   0.66666700  0.83333300  0.38888900
   0.00000000  0.00000000  0.61111100
   0.00000000  0.50000000  0.61111100
   0.50000000  0.00000000  0.61111100
   0.50000000  0.50000000  0.61111100
   0.33333300  0.16666700  0.50000000
   0.33333300  0.66666700  0.50000000
   0.83333300  0.16666700  0.50000000
   0.83333300  0.66666700  0.50000000
   0.16666700  0.33333300  0.47222200
   0.16666700  0.83333300  0.47222200
   0.66666700  0.33333300  0.47222200
   0.66666700  0.83333300  0.47222200
   0.00000000  0.00000000  0.36111100
   0.00000000  0.50000000  0.36111100
   0.50000000  0.00000000  0.36111100
   0.50000000  0.50000000  0.36111100
   0.33333300  0.16666700  0.58333300
   0.33333300  0.66666700  0.58333300
   0.83333300  0.16666700  0.58333300
   0.83333300  0.66666700  0.58333300
   0.00000000  0.00000000  0.52777800
   0.00000000  0.50000000  0.52777800
   0.50000000  0.00000000  0.52777800
   0.50000000  0.50000000  0.52777800
   0.33333300  0.16666700  0.41666700
   0.33333300  0.66666700  0.41666700
   0.83333300  0.16666700  0.41666700
   0.83333300  0.66666700  0.41666700
   0.16666700  0.33333300  0.63888900
   0.16666700  0.83333300  0.63888900
   0.66666700  0.33333300  0.63888900
   0.66666700  0.83333300  0.63888900
   0.11111100  0.50000000  0.72389500
   0.02556600  0.32891000  0.72389500
Direct configuration=     2
   0.16666833  0.33333522  0.38861669
   0.16666706  0.83333323  0.38861697
   0.66666628  0.33333414  0.38861663
   0.66666533  0.83333210  0.38861703
   0.00008165 -0.00018309  0.61135166
  -0.00008827  0.50049957  0.61111128
   0.49979714 -0.00016650  0.61142185
   0.50004714  0.49998443  0.61128025
   0.33333089  0.16666664  0.50001481
   0.33334078  0.66666951  0.50001198
   0.83333176  0.16665678  0.50000643
   0.83333016  0.66667368  0.50001305
   0.16666301  0.33333608  0.47179186
   0.16667233  0.83333205  0.47179112
   0.66667005  0.33332864  0.47179235
   0.66666346  0.83333844  0.47179247
   0.00000374  0.00000271  0.36090392
   0.00000131  0.50000073  0.36090447
   0.49999774  0.00000065  0.36090397
   0.49999792  0.49999763  0.36090392
   0.33338965  0.16666798  0.58311284
   0.33331087  0.66665383  0.58311427
   0.83333584  0.16669349  0.58312214
   0.83330406  0.66662878  0.58310977
  -0.00000669  0.00000517  0.52819641
  -0.00000290  0.49999767  0.52820605
   0.50001061  0.00000452  0.52819509
   0.50000071  0.50000154  0.52820157
   0.33333344  0.16666726  0.41688183
   0.33333023  0.66666575  0.41688286
   0.83333551  0.16667036  0.41688348
   0.83333487  0.66666584  0.41688101
   0.16824294  0.33336375  0.63834283
   0.16660888  0.83359247  0.63894280
   0.66669288  0.33340091  0.63911058
   0.66662303  0.83326008  0.63909036
   0.11148995  0.50048594  0.72423438
   0.02383531  0.32801201  0.72481901
Direct configuration=     3
   0.16666941  0.33333703  0.38839574
   0.16666710  0.83333341  0.38839625
   0.66666569  0.33333507  0.38839563
   0.66666398  0.83333136  0.38839636
   0.00014790 -0.00033164  0.61154692
  -0.00015990  0.50090492  0.61111151
   0.49963254 -0.00030159  0.61167407
   0.50008539  0.49997179  0.61141757
   0.33332918  0.16666634  0.50002683
   0.33334710  0.66667155  0.50002170
   0.83333076  0.16664849  0.50001164
   0.83332785  0.66667911  0.50002364
   0.16665977  0.33333858  0.47144285
   0.16667665  0.83333127  0.47144151
   0.66667252  0.33332511  0.47144374
   0.66666059  0.83334285  0.47144395
   0.00000678  0.00000490  0.36073590
   0.00000238  0.50000133  0.36073690
   0.49999591  0.00000119  0.36073598
   0.49999623  0.49999571  0.36073590
   0.33343562  0.16666878  0.58293420
   0.33329292  0.66664315  0.58293679
   0.83333814  0.16671499  0.58295105
   0.83328057  0.66659777  0.58292864
  -0.00001212  0.00000937  0.52853590
  -0.00000525  0.49999578  0.52855337
   0.50001922  0.00000819  0.52853351
   0.50000129  0.50000278  0.52854524
   0.33333380  0.16666747  0.41705614
   0.33332798  0.66666474  0.41705800
   0.83333755  0.16667308  0.41705914
   0.83333639  0.66666491  0.41705466
   0.16952163  0.33338870  0.63789968
   0.16656173  0.83380299  0.63898646
   0.66671387  0.33345601  0.63929036
   0.66658736  0.83320092  0.63925374
   0.11179742  0.50088023  0.72450975
   0.02243105  0.32728339  0.72556873
Direct configuration=     4
   0.16666995  0.33333727  0.38834120
   0.16666746  0.83333404  0.38834179
   0.66666497  0.33333501  0.38834111
   0.66666355  0.83333125  0.38834193
   0.00016758 -0.00035532  0.61159144
  -0.00018641  0.50099355  0.61110447
   0.49960802 -0.00032188  0.61173638
   0.50009580  0.49995997  0.61144988
   0.33332981  0.16666384  0.50003070
   0.33335898  0.66667984  0.50002280
   0.83332338  0.16663571  0.50001342
   0.83332305  0.66668593  0.50002200
   0.16665837  0.33334084  0.47134822
   0.16667485  0.83332779  0.47134684
   0.66667608  0.33332740  0.47134922
   0.66666029  0.83334244  0.47134918
   0.00000720  0.00000528  0.36068221
   0.00000255  0.50000146  0.36068330
   0.49999562  0.00000123  0.36068230
   0.49999597  0.49999551  0.36068220
   0.33346019  0.16664952  0.58289101
   0.33328785  0.66666125  0.58289577
   0.83333152  0.16672179  0.58291445
   0.83328256  0.66659120  0.58288638
  -0.00001587  0.00000526  0.52862795
  -0.00000717  0.50000002  0.52864628
   0.50002084  0.00000675  0.52862555
   0.50000533  0.50000644  0.52863627
   0.33333393  0.16666763  0.41709246
   0.33332769  0.66666458  0.41709468
   0.83333787  0.16667351  0.41709583
   0.83333653  0.66666475  0.41709124
   0.16987253  0.33339997  0.63778226
   0.16654345  0.83385809  0.63900434
   0.66672849  0.33347310  0.63934607
   0.66657982  0.83318958  0.63930578
   0.11157640  0.50037912  0.72459809
   0.02231796  0.32767631  0.72579503
Direct configuration=     5
   0.16667082  0.33333765  0.38825359
   0.16666803  0.83333504  0.38825430
   0.66666382  0.33333491  0.38825352
   0.66666286  0.83333106  0.38825449
   0.00019921 -0.00039335  0.61166296
  -0.00022900  0.50113593  0.61109315
   0.49956863 -0.00035447  0.61183648
   0.50011253  0.49994098  0.61150179
   0.33333080  0.16665981  0.50003693
   0.33337808  0.66669317  0.50002458
   0.83331154  0.16661517  0.50001626
   0.83331534  0.66669689  0.50001937
   0.16665612  0.33334448  0.47119619
   0.16667196  0.83332221  0.47119477
   0.66668180  0.33333107  0.47119739
   0.66665981  0.83334179  0.47119693
   0.00000787  0.00000589  0.36059595
   0.00000282  0.50000167  0.36059719
   0.49999515  0.00000130  0.36059605
   0.49999555  0.49999519  0.36059593
   0.33349964  0.16661859  0.58282163
   0.33327969  0.66669033  0.58282987
   0.83332087  0.16673272  0.58285565
   0.83328575  0.66658065  0.58281848
  -0.00002189 -0.00000134  0.52877581
  -0.00001024  0.50000683  0.52879552
   0.50002345  0.00000443  0.52877339
   0.50001182  0.50001232  0.52878249
   0.33333413  0.16666787  0.41715080
   0.33332723  0.66666432  0.41715362
   0.83333838  0.16667419  0.41715476
   0.83333677  0.66666450  0.41715000
   0.17043624  0.33341809  0.63759362
   0.16651409  0.83394659  0.63903306
   0.66675197  0.33350055  0.63943556
   0.66656769  0.83317137  0.63938938
   0.11122135  0.49957413  0.72474000
   0.02213629  0.32830752  0.72615856
Direct configuration=     6
   0.16667109  0.33333777  0.38822658
   0.16666820  0.83333535  0.38822732
   0.66666346  0.33333488  0.38822651
   0.66666265  0.83333100  0.38822752
   0.00020896 -0.00040508  0.61168501
  -0.00024213  0.50117984  0.61108966
   0.49955649 -0.00036453  0.61186735
   0.50011769  0.49993512  0.61151780
   0.33333111  0.16665857  0.50003884
   0.33338397  0.66669728  0.50002512
   0.83330789  0.16660884  0.50001714
   0.83331296  0.66670027  0.50001856
   0.16665542  0.33334560  0.47114931
   0.16667107  0.83332048  0.47114787
   0.66668357  0.33333221  0.47115056
   0.66665967  0.83334159  0.47114998
   0.00000808  0.00000608  0.36056935
   0.00000291  0.50000173  0.36057063
   0.49999501  0.00000132  0.36056945
   0.49999542  0.49999509  0.36056932
   0.33351181  0.16660904  0.58280023
   0.33327718  0.66669930  0.58280954
   0.83331759  0.16673609  0.58283752
   0.83328674  0.66657739  0.58279754
  -0.00002375 -0.00000337  0.52882142
  -0.00001119  0.50000893  0.52884155
   0.50002425  0.00000372  0.52881898
   0.50001382  0.50001413  0.52882759
   0.33333419  0.16666794  0.41716880
   0.33332709  0.66666424  0.41717179
   0.83333854  0.16667440  0.41717294
   0.83333684  0.66666442  0.41716812
   0.17061009  0.33342367  0.63753544
   0.16650503  0.83397388  0.63904192
   0.66675921  0.33350902  0.63946315
   0.66656395  0.83316575  0.63941516
   0.11111185  0.49932586  0.72478377
   0.02208026  0.32850218  0.72627068
Direct configuration=     7
   0.16667146  0.33333733  0.38822626
   0.16666917  0.83333666  0.38822686
   0.66666234  0.33333395  0.38822614
   0.66666247  0.83333150  0.38822690
   0.00021586 -0.00038393  0.61167746
  -0.00025444  0.50116438  0.61107755
   0.49958375 -0.00034266  0.61186707
   0.50012460  0.49992263  0.61151479
   0.33333355  0.16665352  0.50004064
   0.33340292  0.66671239  0.50002286
   0.83329444  0.16658935  0.50001796
   0.83330547  0.66671038  0.50001034
   0.16665377  0.33334858  0.47113458
   0.16666589  0.83331447  0.47113318
   0.66668944  0.33333787  0.47113573
   0.66666069  0.83333949  0.47113452
   0.00000731  0.00000570  0.36054545
   0.00000276  0.50000181  0.36054672
   0.49999544  0.00000120  0.36054553
   0.49999585  0.49999579  0.36054540
   0.33354000  0.16657000  0.58280213
   0.33327621  0.66674158  0.58281531
   0.83330345  0.16673991  0.58284919
   0.83330195  0.66657912  0.58280276
  -0.00002878 -0.00001276  0.52883548
  -0.00001424  0.50001725  0.52885327
   0.50002459 -0.00000034  0.52883341
   0.50002142  0.50002076  0.52883742
   0.33333431  0.16666811  0.41715464
   0.33332790  0.66666473  0.41715792
   0.83333802  0.16667372  0.41715894
   0.83333640  0.66666481  0.41715465
   0.17066874  0.33342918  0.63752264
   0.16649210  0.83398170  0.63905518
   0.66677959  0.33351501  0.63948545
   0.66656847  0.83317470  0.63943804
   0.11112064  0.49930173  0.72481639
   0.02194349  0.32847039  0.72636124
Direct configuration=     8
   0.16667257  0.33333602  0.38822529
   0.16667208  0.83334060  0.38822550
   0.66665896  0.33333116  0.38822504
   0.66666193  0.83333302  0.38822504
   0.00023656 -0.00032050  0.61165478
  -0.00029138  0.50111800  0.61104121
   0.49966555 -0.00027706  0.61186626
   0.50014531  0.49988515  0.61150578
   0.33334086  0.16663838  0.50004604
   0.33345976  0.66675771  0.50001607
   0.83325407  0.16653088  0.50002043
   0.83328303  0.66674073  0.49998567
   0.16664882  0.33335752  0.47109040
   0.16665038  0.83329642  0.47108912
   0.66670705  0.33335486  0.47109125
   0.66666377  0.83333320  0.47108816
   0.00000501  0.00000459  0.36047373
   0.00000230  0.50000206  0.36047497
   0.49999673  0.00000084  0.36047376
   0.49999715  0.49999791  0.36047362
   0.33362456  0.16645287  0.58280784
   0.33327329  0.66686840  0.58283264
   0.83326104  0.16675136  0.58288419
   0.83334760  0.66658429  0.58281844
  -0.00004387 -0.00004092  0.52887768
  -0.00002340  0.50004222  0.52888844
   0.50002561 -0.00001254  0.52887669
   0.50004419  0.50004065  0.52886691
   0.33333469  0.16666860  0.41711218
   0.33333031  0.66666622  0.41711629
   0.83333645  0.16667167  0.41711694
   0.83333508  0.66666597  0.41711424
   0.17084469  0.33344572  0.63748423
   0.16645329  0.83400513  0.63909496
   0.66684073  0.33353299  0.63955234
   0.66658203  0.83320152  0.63950669
   0.11114700  0.49922934  0.72491426
   0.02153319  0.32837502  0.72663292
Direct configuration=     9
   0.16667479  0.33333340  0.38822337
   0.16667789  0.83334848  0.38822277
   0.66665221  0.33332558  0.38822284
   0.66666084  0.83333604  0.38822133
   0.00027796 -0.00019364  0.61160943
  -0.00036524  0.50102524  0.61096854
   0.49982914 -0.00014586  0.61186463
   0.50018675  0.49981020  0.61148776
   0.33335548  0.16660811  0.50005683
   0.33357345  0.66684835  0.50000249
   0.83317335  0.16641394  0.50002537
   0.83323813  0.66680142  0.49993633
   0.16663891  0.33337540  0.47100204
   0.16661934  0.83326032  0.47100100
   0.66674228  0.33338883  0.47100229
   0.66666994  0.83332061  0.47099542
   0.00000041  0.00000237  0.36033029
   0.00000140  0.50000255  0.36033147
   0.49999931  0.00000011  0.36033023
   0.49999976  0.50000214  0.36033006
   0.33379367  0.16621861  0.58281926
   0.33326746  0.66712206  0.58286728
   0.83317622  0.16677426  0.58295419
   0.83343890  0.66659464  0.58284979
  -0.00007406 -0.00009725  0.52896208
  -0.00004171  0.50009215  0.52895877
   0.50002765 -0.00003693  0.52896325
   0.50008973  0.50008044  0.52892589
   0.33333544  0.16666958  0.41702726
   0.33333513  0.66666919  0.41703304
   0.83333330  0.16666758  0.41703295
   0.83333244  0.66666829  0.41703342
   0.17119657  0.33347879  0.63740740
   0.16637567  0.83405201  0.63917453
   0.66696300  0.33356895  0.63968611
   0.66660913  0.83325516  0.63964399
   0.11119973  0.49908457  0.72511001
   0.02071259  0.32818427  0.72717629
Direct configuration=    10
   0.16667924  0.33332816  0.38821953
   0.16668951  0.83336423  0.38821731
   0.66663871  0.33331443  0.38821845
   0.66665867  0.83334210  0.38821391
   0.00036076  0.00006009  0.61151874
  -0.00051298  0.50083971  0.61082320
   0.50015632  0.00011655  0.61186136
   0.50026961  0.49966030  0.61145173
   0.33338472  0.16654756  0.50007842
   0.33380083  0.66702962  0.49997534
   0.83301190  0.16618005  0.50003525
   0.83314835  0.66692281  0.49983765
   0.16661909  0.33341116  0.47082531
   0.16655727  0.83318811  0.47082475
   0.66681274  0.33345678  0.47082436
   0.66668226  0.83329543  0.47080995
  -0.00000878 -0.00000207  0.36004342
  -0.00000041  0.50000354  0.36004447
   0.50000448 -0.00000133  0.36004316
   0.50000497  0.50001061  0.36004295
   0.33413191  0.16575010  0.58284210
   0.33325579  0.66762938  0.58293656
   0.83300658  0.16682007  0.58309420
   0.83362149  0.66661534  0.58291248
  -0.00013443 -0.00020992  0.52913087
  -0.00007832  0.50019202  0.52909945
   0.50003173 -0.00008570  0.52913637
   0.50018082  0.50016002  0.52904385
   0.33333695  0.16667155  0.41685741
   0.33334478  0.66667514  0.41686653
   0.83332702  0.16665941  0.41686496
   0.83332717  0.66667293  0.41687179
   0.17190035  0.33354493  0.63725376
   0.16622044  0.83414575  0.63933366
   0.66720755  0.33364088  0.63995365
   0.66666335  0.83336245  0.63991859
   0.11130518  0.49879502  0.72550151
   0.01907138  0.32780278  0.72826302
Direct configuration=    11
   0.16668139  0.33332563  0.38821768
   0.16669512  0.83337185  0.38821466
   0.66663218  0.33330904  0.38821632
   0.66665762  0.83334502  0.38821032
   0.00040080  0.00018277  0.61147488
  -0.00058441  0.50075001  0.61075292
   0.50031453  0.00024343  0.61185979
   0.50030967  0.49958782  0.61143430
   0.33339886  0.16651828  0.50008886
   0.33391077  0.66711728  0.49996220
   0.83293384  0.16606696  0.50004003
   0.83310493  0.66698151  0.49978993
   0.16660951  0.33342845  0.47073986
   0.16652725  0.83315320  0.47073953
   0.66684680  0.33348963  0.47073833
   0.66668821  0.83328326  0.47072027
  -0.00001323 -0.00000422  0.35990470
  -0.00000128  0.50000402  0.35990570
   0.50000698 -0.00000204  0.35990435
   0.50000749  0.50001470  0.35990412
   0.33429546  0.16552355  0.58285315
   0.33325015  0.66787469  0.58297006
   0.83292456  0.16684222  0.58316189
   0.83370978  0.66662535  0.58294279
  -0.00016362 -0.00026439  0.52921249
  -0.00009603  0.50024030  0.52916747
   0.50003370 -0.00010929  0.52922009
   0.50022486  0.50019850  0.52910088
   0.33333768  0.16667250  0.41677528
   0.33334944  0.66667802  0.41678602
   0.83332398  0.16665545  0.41678373
   0.83332462  0.66667518  0.41679363
   0.17224065  0.33357692  0.63717947
   0.16614538  0.83419108  0.63941060
   0.66732580  0.33367565  0.64008302
   0.66668957  0.83341433  0.64005137
   0.11135617  0.49865501  0.72569081
   0.01827780  0.32761831  0.72878849
Direct configuration=    12
   0.16668028  0.33332318  0.38818229
   0.16670364  0.83337848  0.38817572
   0.66662745  0.33329962  0.38817839
   0.66665564  0.83335165  0.38816577
   0.00041822  0.00016914  0.61148399
  -0.00057046  0.50077849  0.61075932
   0.50035380  0.00025739  0.61189395
   0.50038648  0.49961110  0.61145146
   0.33341553  0.16650894  0.50008535
   0.33392583  0.66713929  0.49995717
   0.83291518  0.16605620  0.50003328
   0.83309762  0.66698355  0.49976669
   0.16659821  0.33342728  0.47073801
   0.16651763  0.83314564  0.47073389
   0.66685999  0.33349564  0.47073356
   0.66669703  0.83328862  0.47071248
  -0.00001796 -0.00000880  0.35983922
  -0.00000232  0.50000624  0.35984049
   0.50000848 -0.00000367  0.35983854
   0.50001211  0.50001990  0.35983861
   0.33441532  0.16541764  0.58285287
   0.33327029  0.66801586  0.58298438
   0.83288308  0.16685464  0.58319412
   0.83373522  0.66662360  0.58295481
  -0.00018502 -0.00027559  0.52921040
  -0.00011480  0.50024350  0.52915283
   0.50006981 -0.00011123  0.52921252
   0.50024123  0.50021655  0.52908920
   0.33333907  0.16667041  0.41673023
   0.33336017  0.66668676  0.41674024
   0.83331600  0.16664470  0.41673998
   0.83332086  0.66668073  0.41674748
   0.17234147  0.33359136  0.63716902
   0.16609066  0.83421075  0.63944618
   0.66739826  0.33370850  0.64014144
   0.66671996  0.83344420  0.64010929
   0.11122838  0.49826437  0.72580854
   0.01796465  0.32779538  0.72909825
Direct configuration=    13
   0.16667880  0.33331991  0.38813507
   0.16671500  0.83338732  0.38812375
   0.66662113  0.33328705  0.38812777
   0.66665298  0.83336049  0.38810631
   0.00044148  0.00015094  0.61149616
  -0.00055183  0.50081652  0.61076785
   0.50040622  0.00027602  0.61193955
   0.50048899  0.49964219  0.61147438
   0.33343779  0.16649646  0.50008067
   0.33394594  0.66716867  0.49995046
   0.83289027  0.16604183  0.50002426
   0.83308787  0.66698628  0.49973567
   0.16658312  0.33342571  0.47073553
   0.16650478  0.83313556  0.47072637
   0.66687759  0.33350367  0.47072719
   0.66670880  0.83329577  0.47070209
  -0.00002428 -0.00001491  0.35975182
  -0.00000371  0.50000920  0.35975345
   0.50001048 -0.00000585  0.35975069
   0.50001827  0.50002683  0.35975117
   0.33457531  0.16527628  0.58285249
   0.33329718  0.66820428  0.58300350
   0.83282772  0.16687123  0.58323714
   0.83376919  0.66662126  0.58297085
  -0.00021359 -0.00029053  0.52920762
  -0.00013986  0.50024776  0.52913330
   0.50011801 -0.00011382  0.52920241
   0.50026308  0.50024065  0.52907361
   0.33334093  0.16666762  0.41667009
   0.33337450  0.66669842  0.41667914
   0.83330536  0.16663034  0.41668159
   0.83331583  0.66668813  0.41668588
   0.17247605  0.33361064  0.63715507
   0.16601761  0.83423701  0.63949367
   0.66749498  0.33375233  0.64021942
   0.66676054  0.83348407  0.64018659
   0.11105780  0.49774294  0.72596568
   0.01754666  0.32803171  0.72951172
Direct configuration=    14
   0.16667584  0.33331336  0.38804061
   0.16673773  0.83340500  0.38801980
   0.66660850  0.33326190  0.38802652
   0.66664768  0.83337817  0.38798738
   0.00048799  0.00011454  0.61152049
  -0.00051457  0.50089256  0.61078493
   0.50051106  0.00031328  0.61203075
   0.50069402  0.49970436  0.61152020
   0.33348230  0.16647151  0.50007131
   0.33398615  0.66722744  0.49993703
   0.83284045  0.16601310  0.50000623
   0.83306836  0.66699173  0.49967362
   0.16655295  0.33342258  0.47073058
   0.16647908  0.83311538  0.47071133
   0.66691280  0.33351971  0.47071446
   0.66673234  0.83331008  0.47068132
  -0.00003691 -0.00002712  0.35957702
  -0.00000648  0.50001512  0.35957937
   0.50001449 -0.00001021  0.35957501
   0.50003058  0.50004071  0.35957628
   0.33489530  0.16499356  0.58285174
   0.33335095  0.66858113  0.58304174
   0.83271701  0.16690440  0.58332317
   0.83383712  0.66661658  0.58300293
  -0.00027071 -0.00032042  0.52920207
  -0.00018997  0.50025629  0.52909424
   0.50021440 -0.00011900  0.52918221
   0.50030677  0.50028884  0.52904242
   0.33334464  0.16666205  0.41654982
   0.33340315  0.66672175  0.41655694
   0.83328407  0.16660163  0.41656480
   0.83330579  0.66670293  0.41656267
   0.17274519  0.33364921  0.63712717
   0.16587153  0.83428952  0.63958865
   0.66768843  0.33384001  0.64037539
   0.66684169  0.83356381  0.64034120
   0.11071665  0.49670010  0.72627997
   0.01671068  0.32850439  0.73033865
Direct configuration=    15
   0.16667522  0.33331249  0.38802301
   0.16674149  0.83340765  0.38800039
   0.66660663  0.33325774  0.38800757
   0.66664665  0.83338112  0.38796531
   0.00049527  0.00010242  0.61152705
  -0.00050375  0.50091123  0.61079153
   0.50052334  0.00031445  0.61204775
   0.50072995  0.49971911  0.61152938
   0.33348983  0.16646811  0.50006897
   0.33398848  0.66723432  0.49993500
   0.83283503  0.16601305  0.50000269
   0.83306688  0.66699019  0.49966431
   0.16654802  0.33342106  0.47073321
   0.16647603  0.83311371  0.47071207
   0.66691730  0.33352093  0.47071560
   0.66673638  0.83331326  0.47068114
  -0.00003887 -0.00002911  0.35955116
  -0.00000699  0.50001611  0.35955370
   0.50001508 -0.00001084  0.35954896
   0.50003259  0.50004287  0.35955042
   0.33494685  0.16495378  0.58285124
   0.33336169  0.66863814  0.58304731
   0.83270110  0.16690963  0.58333574
   0.83384456  0.66661493  0.58300738
  -0.00027954 -0.00032285  0.52919747
  -0.00019815  0.50025539  0.52908416
   0.50023277 -0.00011877  0.52917450
   0.50031233  0.50029578  0.52903449
   0.33334536  0.16666099  0.41653147
   0.33340809  0.66672589  0.41653814
   0.83328028  0.16659667  0.41654698
   0.83330408  0.66670543  0.41654350
   0.17277879  0.33365453  0.63712598
   0.16584754  0.83429737  0.63960268
   0.66771850  0.33385570  0.64039821
   0.66685584  0.83357507  0.64036345
   0.11072346  0.49664343  0.72632660
   0.01651890  0.32846903  0.73047149
Direct configuration=    16
   0.16667338  0.33330985  0.38797021
   0.16675277  0.83341560  0.38794216
   0.66660101  0.33324528  0.38795070
   0.66664356  0.83338996  0.38789911
   0.00051712  0.00006607  0.61154673
  -0.00047129  0.50096721  0.61081133
   0.50056020  0.00031794  0.61209875
   0.50083775  0.49976334  0.61155690
   0.33351243  0.16645789  0.50006195
   0.33399549  0.66725498  0.49992889
   0.83281878  0.16601289  0.49999205
   0.83306246  0.66698555  0.49963639
   0.16653326  0.33341650  0.47074111
   0.16646686  0.83310867  0.47071427
   0.66693080  0.33352457  0.47071901
   0.66674849  0.83332281  0.47068062
  -0.00004474 -0.00003508  0.35947359
  -0.00000851  0.50001908  0.35947669
   0.50001682 -0.00001276  0.35947080
   0.50003860  0.50004933  0.35947286
   0.33510149  0.16483446  0.58284973
   0.33339391  0.66880917  0.58306400
   0.83265338  0.16692532  0.58337348
   0.83386687  0.66660997  0.58302075
  -0.00030602 -0.00033013  0.52918368
  -0.00022270  0.50025271  0.52905389
   0.50028788 -0.00011806  0.52915138
   0.50032900  0.50031661  0.52901071
   0.33334753  0.16665783  0.41647641
   0.33342291  0.66673830  0.41648174
   0.83326890  0.16658178  0.41649355
   0.83329894  0.66671292  0.41648599
   0.17287958  0.33367051  0.63712240
   0.16577560  0.83432092  0.63964476
   0.66780871  0.33390278  0.64046669
   0.66689830  0.83360887  0.64043021
   0.11074391  0.49647341  0.72646651
   0.01594357  0.32836293  0.73087001
Direct configuration=    17
   0.16666969  0.33330458  0.38786462
   0.16677535  0.83343150  0.38782571
   0.66658979  0.33322035  0.38783697
   0.66663739  0.83340764  0.38776671
   0.00056083 -0.00000663  0.61158610
  -0.00040638  0.50107919  0.61085094
   0.50063392  0.00032492  0.61220075
   0.50105336  0.49985181  0.61161196
   0.33355764  0.16643746  0.50004790
   0.33400951  0.66729629  0.49991667
   0.83278628  0.16601258  0.49997076
   0.83305362  0.66697629  0.49958054
   0.16650372  0.33340737  0.47075692
   0.16644854  0.83309860  0.47071869
   0.66695780  0.33353185  0.47072584
   0.66677271  0.83334191  0.47067957
  -0.00005648 -0.00004701  0.35931844
  -0.00001155  0.50002501  0.35932266
   0.50002032 -0.00001658  0.35931450
   0.50005064  0.50006227  0.35931773
   0.33541077  0.16459583  0.58284670
   0.33345835  0.66915122  0.58309738
   0.83255793  0.16695669  0.58344894
   0.83391151  0.66660004  0.58304748
  -0.00035898 -0.00034470  0.52915610
  -0.00027180  0.50024734  0.52899336
   0.50039811 -0.00011665  0.52910513
   0.50036235  0.50035827  0.52896315
   0.33335187  0.16665150  0.41636628
   0.33345256  0.66676313  0.41636895
   0.83324613  0.16655200  0.41638667
   0.83328865  0.66672791  0.41637097
   0.17308115  0.33370247  0.63711524
   0.16563171  0.83436804  0.63972892
   0.66798912  0.33399692  0.64060364
   0.66698321  0.83367646  0.64056374
   0.11078479  0.49613338  0.72674632
   0.01479290  0.32815074  0.73166705
Direct configuration=    18
   0.16666230  0.33329405  0.38765342
   0.16682049  0.83346330  0.38759280
   0.66656733  0.33317048  0.38760952
   0.66662504  0.83344300  0.38750191
   0.00064823 -0.00015202  0.61166484
  -0.00027655  0.50130314  0.61093014
   0.50078135  0.00033887  0.61240476
   0.50148457  0.50002876  0.61172207
   0.33364805  0.16639659  0.50001980
   0.33403754  0.66737892  0.49989223
   0.83272127  0.16601196  0.49992820
   0.83303594  0.66695775  0.49946885
   0.16644465  0.33338912  0.47078854
   0.16641189  0.83307845  0.47072752
   0.66701181  0.33354642  0.47073951
   0.66682115  0.83338011  0.47067748
  -0.00007995 -0.00007087  0.35900815
  -0.00001764  0.50003689  0.35901461
   0.50002731 -0.00002422  0.35900188
   0.50007471  0.50008813  0.35900747
   0.33602933  0.16411855  0.58284065
   0.33358724  0.66983533  0.58316415
   0.83236704  0.16701944  0.58359988
   0.83400077  0.66658019  0.58310093
  -0.00046489 -0.00037383  0.52910094
  -0.00037000  0.50023660  0.52887231
   0.50061857 -0.00011383  0.52901263
   0.50042904  0.50044158  0.52886802
   0.33336055  0.16663883  0.41614604
   0.33351185  0.66681279  0.41614336
   0.83320061  0.16649245  0.41617291
   0.83326808  0.66675787  0.41614093
   0.17348430  0.33376639  0.63710092
   0.16534392  0.83446226  0.63989725
   0.66834994  0.33418522  0.64087753
   0.66715302  0.83381165  0.64083079
   0.11086657  0.49545331  0.72730594
   0.01249156  0.32772636  0.73326112
Direct configuration=    19
   0.16664754  0.33327298  0.38723104
   0.16691078  0.83352689  0.38712699
   0.66652242  0.33307076  0.38715460
   0.66660036  0.83351372  0.38697231
   0.00082303 -0.00044281  0.61182232
  -0.00001688  0.50175105  0.61108856
   0.50107621  0.00036679  0.61281276
   0.50234700  0.50038265  0.61194229
   0.33382887  0.16631486  0.49996360
   0.33409360  0.66754417  0.49984336
   0.83259126  0.16601071  0.49984308
   0.83300057  0.66692068  0.49924547
   0.16632651  0.33335260  0.47085177
   0.16633860  0.83303816  0.47074517
   0.66711982  0.33357556  0.47076683
   0.66691802  0.83345651  0.47067330
  -0.00012690 -0.00011860  0.35838757
  -0.00002981  0.50006063  0.35839850
   0.50004128 -0.00003952  0.35837665
   0.50012285  0.50013986  0.35838696
   0.33726645  0.16316400  0.58282855
   0.33384501  0.67120355  0.58329768
   0.83198526  0.16714494  0.58390174
   0.83417930  0.66654049  0.58320784
  -0.00067672 -0.00043209  0.52899062
  -0.00056640  0.50021512  0.52863020
   0.50105949 -0.00010820  0.52882763
   0.50056243  0.50060821  0.52867778
   0.33337791  0.16661351  0.41570556
   0.33363045  0.66691211  0.41569218
   0.83310956  0.16637334  0.41574540
   0.83322695  0.66681781  0.41568084
   0.17429061  0.33389424  0.63707229
   0.16476835  0.83465071  0.64023390
   0.66907158  0.33456181  0.64142532
   0.66749266  0.83408202  0.64136489
   0.11103012  0.49409317  0.72842518
   0.00788888  0.32687759  0.73644928
Direct configuration=    20
   0.16664409  0.33326805  0.38713224
   0.16693189  0.83354177  0.38701803
   0.66651192  0.33304743  0.38704820
   0.66659458  0.83353026  0.38684844
   0.00086392 -0.00051083  0.61185916
   0.00004385  0.50185581  0.61112561
   0.50114518  0.00037332  0.61290820
   0.50254872  0.50046542  0.61199380
   0.33387116  0.16629575  0.49995046
   0.33410671  0.66758282  0.49983193
   0.83256085  0.16601042  0.49982317
   0.83299230  0.66691200  0.49919322
   0.16629887  0.33334406  0.47086656
   0.16632146  0.83302873  0.47074930
   0.66714508  0.33358238  0.47077322
   0.66694068  0.83347438  0.47067232
  -0.00013788 -0.00012976  0.35824241
  -0.00003266  0.50006619  0.35825439
   0.50004455 -0.00004309  0.35823041
   0.50013411  0.50015196  0.35824182
   0.33755581  0.16294073  0.58282572
   0.33390530  0.67152358  0.58332891
   0.83189596  0.16717430  0.58397234
   0.83422106  0.66653121  0.58323285
  -0.00072627 -0.00044572  0.52896482
  -0.00061234  0.50021009  0.52857357
   0.50116262 -0.00010688  0.52878436
   0.50059363  0.50064719  0.52863328
   0.33338197  0.16660759  0.41560253
   0.33365819  0.66693534  0.41558665
   0.83308827  0.16634548  0.41564541
   0.83321733  0.66683183  0.41557323
   0.17447920  0.33392414  0.63706559
   0.16463373  0.83469479  0.64031265
   0.66924037  0.33464990  0.64155345
   0.66757210  0.83414526  0.64148982
   0.11106838  0.49377504  0.72868697
   0.00681232  0.32667906  0.73719498
Direct configuration=    21
   0.16663892  0.33327114  0.38693468
   0.16695805  0.83355147  0.38679592
   0.66650587  0.33302154  0.38682949
   0.66658188  0.83354939  0.38660197
   0.00095355 -0.00064942  0.61193516
   0.00019786  0.50206813  0.61122057
   0.50127444  0.00037832  0.61308386
   0.50292418  0.50063909  0.61208711