CeO2                                    
           1
     7.707464    0.000000    0.000000
    -3.853732    6.674860    0.000000
     0.000000    0.000000   28.319031
   Ce   O    C    O 
  12  24   1   1
Direct configuration=     1
   0.16666700  0.33333300  0.38888900
   0.16666700  0.83333300  0.38888900
   0.66666700  0.33333300  0.38888900
   0.66666700  0.83333300  0.38888900
   0.00000000  0.00000000  0.61111100
   0.00000000  0.50000000  0.61111100
   0.50000000  0.00000000  0.61111100
   0.50000000  0.50000000  0.61111100
   0.33333300  0.16666700  0.50000000
   0.33333300  0.66666700  0.50000000
   0.83333300  0.16666700  0.50000000
   0.83333300  0.66666700  0.50000000
   0.16666700  0.33333300  0.47222200
   0.16666700  0.83333300  0.47222200
   0.66666700  0.33333300  0.47222200
   0.66666700  0.83333300  0.47222200
   0.00000000  0.00000000  0.36111100
   0.00000000  0.50000000  0.36111100
   0.50000000  0.00000000  0.36111100
   0.50000000  0.50000000  0.36111100
   0.33333300  0.16666700  0.58333300
   0.33333300  0.66666700  0.58333300
   0.83333300  0.16666700  0.58333300
   0.83333300  0.66666700  0.58333300
   0.00000000  0.00000000  0.52777800
   0.00000000  0.50000000  0.52777800
   0.50000000  0.00000000  0.52777800
   0.50000000  0.50000000  0.52777800
   0.33333300  0.16666700  0.41666700
   0.33333300  0.66666700  0.41666700
   0.83333300  0.16666700  0.41666700
   0.83333300  0.66666700  0.41666700
   0.16666700  0.33333300  0.63888900
   0.16666700  0.83333300  0.63888900
   0.66666700  0.33333300  0.63888900
   0.66666700  0.83333300  0.63888900
   0.44444400  0.05555600  0.72389500
   0.52998900  0.22664500  0.72389500
Direct configuration=     2
   0.16666534  0.33333814  0.38861528
   0.16666754  0.83332808  0.38861451
   0.66667159  0.33333435  0.38861451
   0.66666322  0.83333256  0.38861518
  -0.00023291 -0.00011734  0.61131552
  -0.00021954  0.49994437  0.61137159
   0.49999067 -0.00060337  0.61118142
   0.50021799  0.50021133  0.61135113
   0.33333389  0.16668149  0.50000540
   0.33331993  0.66664589  0.50001192
   0.83334716  0.16668541  0.50001493
   0.83332930  0.66665504  0.50001497
   0.16667110  0.33333676  0.47179072
   0.16667480  0.83333572  0.47179081
   0.66666255  0.33332943  0.47178943
   0.66666042  0.83333154  0.47179089
  -0.00000076  0.00000066  0.36090331
   0.00000114  0.49999990  0.36090349
   0.50000036 -0.00000144  0.36090356
   0.49999935  0.50000160  0.36090336
   0.33330288  0.16664159  0.58313322
   0.33333955  0.66667246  0.58311179
   0.83335517  0.16660705  0.58311705
   0.83337020  0.66676902  0.58311195
   0.00000718  0.00000649  0.52820296
   0.00001937  0.50000657  0.52819633
   0.49999253 -0.00001340  0.52820745
   0.49998614  0.50000081  0.52820204
   0.33333351  0.16666724  0.41688082
   0.33333360  0.66666703  0.41688107
   0.83333350  0.16666710  0.41687995
   0.83333338  0.66666713  0.41688015
   0.16665711  0.33316347  0.63912604
   0.16626404  0.83345636  0.63896813
   0.66820517  0.33467167  0.63827119
   0.66683478  0.83344330  0.63907188
   0.44453436  0.05454469  0.72424773
   0.52880736  0.22679232  0.72479831
Direct configuration=     3
   0.16666370  0.33334320  0.38834582
   0.16666808  0.83332325  0.38834430
   0.66667612  0.33333567  0.38834430
   0.66665951  0.83333213  0.38834564
  -0.00046219 -0.00023285  0.61151684
  -0.00043565  0.49988960  0.61162812
   0.49998149 -0.00119732  0.61125073
   0.50043257  0.50041937  0.61158751
   0.33333477  0.16669575  0.50001072
   0.33330707  0.66662511  0.50002366
   0.83336111  0.16670353  0.50002962
   0.83332566  0.66664326  0.50002971
   0.16667513  0.33334045  0.47136618
   0.16668248  0.83333839  0.47136635
   0.66665818  0.33332591  0.47136361
   0.66665394  0.83333010  0.47136650
  -0.00000151  0.00000132  0.36069887
   0.00000226  0.49999980  0.36069921
   0.50000072 -0.00000286  0.36069936
   0.49999871  0.50000317  0.36069897
   0.33327324  0.16661659  0.58293655
   0.33334600  0.66667784  0.58289403
   0.83337700  0.16654803  0.58290446
   0.83340683  0.66686945  0.58289435
   0.00001425  0.00001288  0.52862129
   0.00003845  0.50001304  0.52860813
   0.49998517 -0.00002659  0.52863020
   0.49997249  0.50000160  0.52861946
   0.33333401  0.16666747  0.41709130
   0.33333419  0.66666706  0.41709179
   0.83333399  0.16666720  0.41708958
   0.83333375  0.66666725  0.41708998
   0.16664738  0.33299658  0.63935939
   0.16586737  0.83357779  0.63904603
   0.66971934  0.33598946  0.63766302
   0.66699993  0.83355189  0.63925191
   0.44462331  0.05354916  0.72459496
   0.52764417  0.22693734  0.72568752
Direct configuration=     4
   0.16666306  0.33334369  0.38828447
   0.16666733  0.83332225  0.38828289
   0.66667735  0.33333654  0.38828283
   0.66665957  0.83333207  0.38828438
  -0.00049101 -0.00024218  0.61156160
  -0.00047380  0.49988325  0.61168308
   0.49996769 -0.00134195  0.61125519
   0.50047225  0.50045376  0.61163592
   0.33332971  0.16670324  0.50001304
   0.33329606  0.66660875  0.50002196
   0.83337567  0.16671456  0.50003110
   0.83332694  0.66664091  0.50003285
   0.16667631  0.33334141  0.47125725
   0.16668708  0.83334046  0.47125767
   0.66665552  0.33332232  0.47125465
   0.66665087  0.83333089  0.47125803
  -0.00000155  0.00000158  0.36063479
   0.00000259  0.49999978  0.36063511
   0.50000068 -0.00000319  0.36063531
   0.49999837  0.50000341  0.36063489
   0.33326763  0.16660714  0.58289907
   0.33336147  0.66668714  0.58285212
   0.83337958  0.16650739  0.58285986
   0.83341826  0.66692693  0.58284636
   0.00001530  0.00001574  0.52872571
   0.00004436  0.50001410  0.52871251
   0.49998303 -0.00003587  0.52873777
   0.49996809  0.50000422  0.52872654
   0.33333405  0.16666759  0.41712937
   0.33333405  0.66666682  0.41712998
   0.83333425  0.16666746  0.41712757
   0.83333390  0.66666715  0.41712775
   0.16665170  0.33295580  0.63943107
   0.16577094  0.83361506  0.63907526
   0.67011210  0.33632793  0.63751128
   0.66703154  0.83357763  0.63930963
   0.44502391  0.05401763  0.72470452
   0.52692812  0.22621959  0.72594667
Direct configuration=     5
   0.16666241  0.33334418  0.38822232
   0.16666658  0.83332124  0.38822068
   0.66667860  0.33333742  0.38822057
   0.66665964  0.83333202  0.38822233
  -0.00052021 -0.00025163  0.61160693
  -0.00051244  0.49987682  0.61173875
   0.49995370 -0.00148845  0.61125971
   0.50051244  0.50048860  0.61168495
   0.33332458  0.16671084  0.50001538
   0.33328492  0.66659218  0.50002023
   0.83339042  0.16672573  0.50003261
   0.83332824  0.66663853  0.50003602
   0.16667751  0.33334239  0.47114691
   0.16669174  0.83334256  0.47114757
   0.66665284  0.33331869  0.47114428
   0.66664777  0.83333169  0.47114815
  -0.00000160  0.00000185  0.36056988
   0.00000292  0.49999976  0.36057018
   0.50000064 -0.00000352  0.36057043
   0.49999804  0.50000364  0.36056998
   0.33326195  0.16659756  0.58286109
   0.33337715  0.66669656  0.58280967
   0.83338219  0.16646622  0.58281468
   0.83342985  0.66698515  0.58279774
   0.00001636  0.00001864  0.52883148
   0.00005036  0.50001517  0.52881823
   0.49998086 -0.00004528  0.52884672
   0.49996363  0.50000687  0.52883500
   0.33333409  0.16666772  0.41716794
   0.33333391  0.66666658  0.41716866
   0.83333452  0.16666773  0.41716605
   0.83333405  0.66666704  0.41716600
   0.16665608  0.33291449  0.63950369
   0.16567326  0.83365281  0.63910487
   0.67050995  0.33667078  0.63735757
   0.66706355  0.83360370  0.63936809
   0.44542971  0.05449216  0.72481549
   0.52620280  0.22549256  0.72620917
Direct configuration=     6
   0.16666230  0.33334426  0.38821240
   0.16666646  0.83332108  0.38821075
   0.66667880  0.33333756  0.38821062
   0.66665965  0.83333201  0.38821243
  -0.00052487 -0.00025314  0.61161416
  -0.00051861  0.49987580  0.61174763
   0.49995147 -0.00151184  0.61126043
   0.50051886  0.50049417  0.61169278
   0.33332376  0.16671205  0.50001576
   0.33328314  0.66658953  0.50001995
   0.83339277  0.16672752  0.50003285
   0.83332845  0.66663814  0.50003652
   0.16667770  0.33334254  0.47112929
   0.16669248  0.83334290  0.47112999
   0.66665241  0.33331811  0.47112666
   0.66664727  0.83333182  0.47113061
  -0.00000160  0.00000190  0.36055951
   0.00000297  0.49999975  0.36055981
   0.50000064 -0.00000358  0.36056007
   0.49999799  0.50000368  0.36055961
   0.33326105  0.16659604  0.58285503
   0.33337965  0.66669807  0.58280290
   0.83338260  0.16645964  0.58280746
   0.83343170  0.66699445  0.58278998
   0.00001653  0.00001911  0.52884837
   0.00005131  0.50001534  0.52883511
   0.49998051 -0.00004678  0.52886412
   0.49996291  0.50000730  0.52885232
   0.33333410  0.16666774  0.41717410
   0.33333389  0.66666654  0.41717484
   0.83333457  0.16666778  0.41717219
   0.83333407  0.66666702  0.41717211
   0.16665678  0.33290789  0.63951528
   0.16565766  0.83365883  0.63910960
   0.67057348  0.33672552  0.63733303
   0.66706866  0.83360786  0.63937742
   0.44549450  0.05456793  0.72483321
   0.52608699  0.22537648  0.72625108
Direct configuration=     7
   0.16666203  0.33334301  0.38821584
   0.16666534  0.83332150  0.38821462
   0.66667879  0.33333815  0.38821440
   0.66666104  0.83333201  0.38821626
  -0.00048784 -0.00022940  0.61161014
  -0.00049188  0.49989276  0.61173771
   0.49993129 -0.00152500  0.61124275
   0.50050379  0.50047846  0.61167980
   0.33331592  0.16671755  0.50001730
   0.33327175  0.66657300  0.50001297
   0.83340909  0.16673661  0.50002992
   0.83333188  0.66663957  0.50003626
   0.16667859  0.33334317  0.47111547
   0.16669736  0.83334506  0.47111664
   0.66664965  0.33331362  0.47111349
   0.66664428  0.83333320  0.47111758
  -0.00000137  0.00000210  0.36053327
   0.00000328  0.49999970  0.36053348
   0.50000045 -0.00000377  0.36053382
   0.49999761  0.50000347  0.36053337
   0.33326408  0.16659117  0.58286854
   0.33340212  0.66671034  0.58281736
   0.83337932  0.16641636  0.58281561
   0.83343631  0.66705023  0.58279432
   0.00001671  0.00002211  0.52885643
   0.00005392  0.50001457  0.52884612
   0.49997950 -0.00005700  0.52887562
   0.49996039  0.50001065  0.52886540
   0.33333386  0.16666793  0.41715564
   0.33333327  0.66666577  0.41715643
   0.83333516  0.16666828  0.41715384
   0.83333423  0.66666675  0.41715334
   0.16666865  0.33290667  0.63954255
   0.16564922  0.83366926  0.63912569
   0.67062762  0.33676709  0.63732018
   0.66705635  0.83360656  0.63940190
   0.44555473  0.05453304  0.72487145
   0.52592652  0.22533643  0.72634449
Direct configuration=     8
   0.16666122  0.33333927  0.38822616
   0.16666200  0.83332277  0.38822622
   0.66667877  0.33333990  0.38822573
   0.66666520  0.83333203  0.38822777
  -0.00037677 -0.00015817  0.61159808
  -0.00041170  0.49994365  0.61170793
   0.49987074 -0.00156446  0.61118971
   0.50045859  0.50043135  0.61164087
   0.33329237  0.16673405  0.50002192
   0.33323758  0.66652343  0.49999200
   0.83345803  0.16676391  0.50002114
   0.83334216  0.66664383  0.50003545
   0.16668125  0.33334506  0.47107403
   0.16671199  0.83335153  0.47107657
   0.66664136  0.33330015  0.47107398
   0.66663533  0.83333736  0.47107848
  -0.00000066  0.00000272  0.36045455
   0.00000420  0.49999953  0.36045451
   0.49999990 -0.00000436  0.36045506
   0.49999648  0.50000285  0.36045463
   0.33327317  0.16657656  0.58290907
   0.33346952  0.66674717  0.58286075
   0.83336947  0.16628650  0.58284007
   0.83345015  0.66721758  0.58280732
   0.00001723  0.00003111  0.52888062
   0.00006176  0.50001227  0.52887915
   0.49997645 -0.00008766  0.52891014
   0.49995282  0.50002073  0.52890464
   0.33333316  0.16666849  0.41710026
   0.33333142  0.66666345  0.41710120
   0.83333695  0.16666979  0.41709878
   0.83333470  0.66666596  0.41709703
   0.16670425  0.33290300  0.63962437
   0.16562388  0.83370055  0.63917398
   0.67079005  0.33689180  0.63728162
   0.66701942  0.83360267  0.63947532
   0.44573543  0.05442836  0.72498619
   0.52544512  0.22521631  0.72662471
Direct configuration=     9
   0.16665961  0.33333178  0.38824681
   0.16665532  0.83332530  0.38824941
   0.66667872  0.33334340  0.38824839
   0.66667352  0.83333207  0.38825080
  -0.00015462 -0.00001571  0.61157395
  -0.00025135  0.50004543  0.61164838
   0.49974963 -0.00164337  0.61108363
   0.50036819  0.50033711  0.61156300
   0.33324528  0.16676704  0.50003115
   0.33316925  0.66642428  0.49995008
   0.83355593  0.16681850  0.50000358
   0.83336271  0.66665237  0.50003385
   0.16668657  0.33334883  0.47099113
   0.16674126  0.83336447  0.47099643
   0.66662479  0.33327320  0.47099495
   0.66661741  0.83334567  0.47100029
   0.00000076  0.00000396  0.36029709
   0.00000604  0.49999920  0.36029656
   0.49999879 -0.00000554  0.36029753
   0.49999423  0.50000160  0.36029716
   0.33329136  0.16654734  0.58299014
   0.33360433  0.66682082  0.58294754
   0.83334976  0.16602678  0.58288897
   0.83347782  0.66755228  0.58283333
   0.00001828  0.00004911  0.52892899
   0.00007742  0.50000767  0.52894521
   0.49997037 -0.00014899  0.52897916
   0.49993768  0.50004087  0.52898311
   0.33333175  0.16666961  0.41698951
   0.33332771  0.66665881  0.41699075
   0.83334053  0.16667281  0.41698866
   0.83333565  0.66666437  0.41698441
   0.16677546  0.33289565  0.63978800
   0.16557321  0.83376311  0.63927055
   0.67111491  0.33714122  0.63720450
   0.66694556  0.83359489  0.63962217
   0.44609684  0.05421901  0.72521567
   0.52448232  0.22497605  0.72718515
Direct configuration=    10
   0.16665637  0.33331681  0.38828810
   0.16664195  0.83333035  0.38829581
   0.66667863  0.33335040  0.38829371
   0.66669017  0.83333214  0.38829684
   0.00028967  0.00026921  0.61152570
   0.00006937  0.50024899  0.61152927
   0.49950743 -0.00180121  0.61087147
   0.50018738  0.50014865  0.61140727
   0.33315111  0.16683303  0.50004963
   0.33303259  0.66622598  0.49986623
   0.83375172  0.16692768  0.49996846
   0.83340383  0.66666944  0.50003064
   0.16669721  0.33335638  0.47082534
   0.16679980  0.83339036  0.47083616
   0.66659165  0.33321931  0.47083690
   0.66658159  0.83336228  0.47084390
   0.00000359  0.00000644  0.35998219
   0.00000971  0.49999854  0.35998066
   0.49999656 -0.00000791  0.35998248
   0.49998971  0.49999910  0.35998222
   0.33332773  0.16648891  0.58315227
   0.33387395  0.66696813  0.58312112
   0.83331034  0.16550734  0.58298677
   0.83353317  0.66822168  0.58288535
   0.00002038  0.00008511  0.52902575
   0.00010875  0.49999848  0.52907733
   0.49995820 -0.00027165  0.52911721
   0.49990740  0.50008117  0.52914007
   0.33332892  0.16667186  0.41676800
   0.33332029  0.66664953  0.41676984
   0.83334769  0.16667885  0.41676842
   0.83333754  0.66666119  0.41675917
   0.16691786  0.33288095  0.64011526
   0.16547187  0.83388825  0.63946370
   0.67176462  0.33764006  0.63705027
   0.66679785  0.83357932  0.63991587
   0.44681964  0.05380032  0.72567462
   0.52255673  0.22449554  0.72830602
Direct configuration=    11
   0.16665594  0.33330524  0.38822913
   0.16663968  0.83334026  0.38824351
   0.66667253  0.33334869  0.38824270
   0.66669889  0.83333509  0.38824537
   0.00031493  0.00030860  0.61157580
   0.00015006  0.50029812  0.61154305
   0.49953492 -0.00181742  0.61088921
   0.50020872  0.50019613  0.61142852
   0.33313474  0.16682364  0.50004341
   0.33303027  0.66621862  0.49983778
   0.83376406  0.16691219  0.49995967
   0.83341585  0.66670133  0.50002676
   0.16670971  0.33336656  0.47083818
   0.16681771  0.83339491  0.47085150
   0.66657821  0.33320704  0.47085486
   0.66656454  0.83335717  0.47085791
   0.00000418  0.00000852  0.35991318
   0.00001296  0.49999821  0.35991180
   0.49999572 -0.00001038  0.35991403
   0.49998640  0.49999931  0.35991347
   0.33332431  0.16647544  0.58318003
   0.33391291  0.66697853  0.58315189
   0.83334344  0.16538384  0.58299734
   0.83357717  0.66843283  0.58288131
   0.00007118  0.00013105  0.52898178
   0.00013249  0.50000009  0.52905440
   0.49993283 -0.00031031  0.52908287
   0.49986986  0.50006771  0.52911496
   0.33332273  0.16667517  0.41671707
   0.33331350  0.66663931  0.41671673
   0.83335819  0.16668434  0.41671509
   0.83333960  0.66666183  0.41670559
   0.16697121  0.33290617  0.64018119
   0.16547114  0.83390173  0.63950296
   0.67183828  0.33767839  0.63704754
   0.66672929  0.83355731  0.63997494
   0.44715518  0.05385882  0.72581626
   0.52187966  0.22418693  0.72864823
Direct configuration=    12
   0.16665465  0.33327051  0.38805221
   0.16663290  0.83336997  0.38808661
   0.66665423  0.33334355  0.38808968
   0.66672505  0.83334392  0.38809097
   0.00039072  0.00042676  0.61172608
   0.00039215  0.50044550  0.61158438
   0.49961739 -0.00186604  0.61094244
   0.50027273  0.50033856  0.61149228
   0.33308562  0.16679547  0.50002474
   0.33302332  0.66619652  0.49975245
   0.83380109  0.16686571  0.49993329
   0.83345191  0.66679702  0.50001512
   0.16674720  0.33339711  0.47087669
   0.16687147  0.83340856  0.47089755
   0.66653788  0.33317025  0.47090872
   0.66651341  0.83334182  0.47089997
   0.00000593  0.00001479  0.35970613
   0.00002270  0.49999721  0.35970523
   0.49999318 -0.00001779  0.35970869
   0.49997645  0.49999994  0.35970721
   0.33331405  0.16643505  0.58326330
   0.33402979  0.66700973  0.58324418
   0.83344273  0.16501335  0.58302905
   0.83370918  0.66906629  0.58286917
   0.00022360  0.00026889  0.52884987
   0.00020373  0.50000493  0.52898560
   0.49985671 -0.00042630  0.52897987
   0.49975725  0.50002733  0.52903963
   0.33330416  0.16668511  0.41656431
   0.33329311  0.66660865  0.41655740
   0.83338969  0.16670080  0.41655508
   0.83334576  0.66666376  0.41654483
   0.16713125  0.33298184  0.64037901
   0.16546892  0.83394217  0.63962074
   0.67205923  0.33779337  0.63703936
   0.66652362  0.83349128  0.64015212
   0.44816178  0.05403431  0.72624117
   0.51984844  0.22326109  0.72967485
Direct configuration=    13
   0.16665207  0.33320106  0.38769838
   0.16661934  0.83342940  0.38777282
   0.66661764  0.33333328  0.38778365
   0.66677738  0.83336158  0.38778217
   0.00054230  0.00066307  0.61202663
   0.00087632  0.50074027  0.61166706
   0.49978234 -0.00196329  0.61104889
   0.50040074  0.50062343  0.61161980
   0.33298738  0.16673913  0.49998741
   0.33300940  0.66615232  0.49958179
   0.83387514  0.16677277  0.49988053
   0.83352402  0.66698839  0.49999186
   0.16682218  0.33345821  0.47095372
   0.16697897  0.83343586  0.47098963
   0.66645722  0.33309665  0.47101644
   0.66641115  0.83331114  0.47098408
   0.00000943  0.00002731  0.35929205
   0.00004219  0.49999523  0.35929208
   0.49998811 -0.00003262  0.35929800
   0.49995655  0.50000120  0.35929469
   0.33329352  0.16635426  0.58342984
   0.33426356  0.66707213  0.58342878
   0.83364132  0.16427237  0.58309248
   0.83397321  0.67033319  0.58284490
   0.00052842  0.00054456  0.52858605
   0.00034621  0.50001461  0.52884801
   0.49970447 -0.00065828  0.52877385
   0.49953202  0.49994659  0.52888899
   0.33326701  0.16670499  0.41625877
   0.33325233  0.66654734  0.41623875
   0.83345269  0.16673373  0.41623508
   0.83335809  0.66666762  0.41622331
   0.16745132  0.33313317  0.64077463
   0.16546450  0.83402306  0.63985631
   0.67250115  0.33802334  0.63702299
   0.66611229  0.83335921  0.64050649
   0.45017499  0.05438530  0.72709099
   0.51578602  0.22140941  0.73172808
Direct configuration=    14
   0.16664691  0.33306216  0.38699071
   0.16659221  0.83354825  0.38714525
   0.66654445  0.33331275  0.38717158
   0.66688203  0.83339692  0.38716457
   0.00084545  0.00113570  0.61262775
   0.00184466  0.50132982  0.61183240
   0.50011224 -0.00215780  0.61126178
   0.50065677  0.50119317  0.61187484
   0.33279090  0.16662646  0.49991275
   0.33298157  0.66606392  0.49924046
   0.83402324  0.16658688  0.49977501
   0.83366826  0.66737113  0.49994532
   0.16697215  0.33358040  0.47110778
   0.16719398  0.83349046  0.47117380
   0.66629591  0.33294947  0.47123189
   0.66620664  0.83324976  0.47115231
   0.00001645  0.00005235  0.35846388
   0.00008116  0.49999125  0.35846579
   0.49997797 -0.00006228  0.35847663
   0.49991676  0.50000373  0.35846967
   0.33325248  0.16619268  0.58376292
   0.33473108  0.66719694  0.58379796
   0.83403849  0.16279041  0.58321932
   0.83450125  0.67286701  0.58279635
   0.00113808  0.00109591  0.52805842
   0.00063116  0.50003396  0.52857284
   0.49939999 -0.00112223  0.52836183
   0.49908157  0.49978509  0.52858769
   0.33319271  0.16674475  0.41564771
   0.33317078  0.66642471  0.41560145
   0.83357868  0.16679957  0.41559506
   0.83338275  0.66667534  0.41558026
   0.16809146  0.33343583  0.64156588
   0.16545564  0.83418483  0.64032745
   0.67338499  0.33848329  0.63699026
   0.66528961  0.83309508  0.64121524
   0.45420140  0.05508728  0.72879063
   0.50766116  0.21770605  0.73583455
Direct configuration=    15
   0.16664657  0.33305785  0.38696519
   0.16659146  0.83355187  0.38712244
   0.66654234  0.33331198  0.38714964
   0.66688526  0.83339820  0.38714202
   0.00085465  0.00115090  0.61264839
   0.00187665  0.50134982  0.61183828
   0.50012593 -0.00216265  0.61127063
   0.50066773  0.50121494  0.61188429
   0.33278577  0.16662254  0.49990979
   0.33298218  0.66606241  0.49922893
   0.83402668  0.16657921  0.49977092
   0.83367264  0.66738462  0.49994307
   0.16697708  0.33358537  0.47111174
   0.16720009  0.83349084  0.47117889
   0.66629170  0.33294571  0.47123850
   0.66620019  0.83324710  0.47115691
   0.00001666  0.00005305  0.35843505
   0.00008244  0.49999125  0.35843715
   0.49997759 -0.00006329  0.35844826
   0.49991558  0.50000389  0.35844104
   0.33325052  0.16618787  0.58377425
   0.33474450  0.66719951  0.58381005
   0.83405490  0.16274342  0.58322389
   0.83452016  0.67295165  0.58279516
   0.00116130  0.00111661  0.52803995
   0.00064067  0.50003473  0.52856399
   0.49938991 -0.00113781  0.52834787
   0.49906623  0.49977949  0.52857728
   0.33318987  0.16674581  0.41562627
   0.33316825  0.66642078  0.41557911
   0.83358298  0.16680138  0.41557279
   0.83338377  0.66667613  0.41555802
   0.16811314  0.33344873  0.64159235
   0.16545519  0.83418689  0.64034363
   0.67341391  0.33849691  0.63699155
   0.66526129  0.83308534  0.64123942
   0.45431778  0.05502048  0.72884685
   0.50739946  0.21766747  0.73598643
Direct configuration=    16
   0.16664553  0.33304492  0.38688864
   0.16658919  0.83356271  0.38705403
   0.66653600  0.33330969  0.38708382
   0.66689495  0.83340205  0.38707437
   0.00088225  0.00119651  0.61271028
   0.00197261  0.50140983  0.61185593
   0.50016700 -0.00217723  0.61129718
   0.50070059  0.50128025  0.61191263
   0.33277039  0.16661077  0.49990092
   0.33298403  0.66605787  0.49919433
   0.83403700  0.16655618  0.49975864
   0.83368577  0.66742511  0.49993631
   0.16699186  0.33360029  0.47112365
   0.16721842  0.83349199  0.47119415
   0.66627908  0.33293443  0.47125831
   0.66618083  0.83323911  0.47117072
   0.00001732  0.00005513  0.35834858
   0.00008630  0.49999124  0.35835122
   0.49997645 -0.00006633  0.35836317
   0.49991203  0.50000437  0.35835516
   0.33324464  0.16617347  0.58380822
   0.33478476  0.66720722  0.58384631
   0.83410413  0.16260246  0.58323760
   0.83457691  0.67320556  0.58279158
   0.00123095  0.00117872  0.52798457
   0.00066920  0.50003704  0.52853745
   0.49935968 -0.00118454  0.52830597
   0.49902020  0.49976269  0.52854606
   0.33318134  0.16674900  0.41556198
   0.33316067  0.66640900  0.41551208
   0.83359587  0.16680680  0.41550598
   0.83338682  0.66667849  0.41549130
   0.16817815  0.33348745  0.64167175
   0.16545383  0.83419307  0.64039215
   0.67350067  0.33853778  0.63699541
   0.66517630  0.83305613  0.64131197
   0.45466693  0.05482007  0.72901550
   0.50661435  0.21755173  0.73644208
Direct configuration=    17
   0.16664346  0.33301907  0.38673553
   0.16658466  0.83358439  0.38691721
   0.66652332  0.33330510  0.38695220
   0.66691433  0.83340974  0.38693907
   0.00093746  0.00128772  0.61283407
   0.00216453  0.50152985  0.61189123
   0.50024915 -0.00220638  0.61135027
   0.50076632  0.50141087  0.61196930
   0.33273963  0.16658723  0.49988317
   0.33298772  0.66604880  0.49912515
   0.83405764  0.16651011  0.49973407
   0.83371204  0.66750608  0.49992280
   0.16702142  0.33363013  0.47114746
   0.16725509  0.83349428  0.47122466
   0.66625384  0.33291186  0.47129794
   0.66614213  0.83322312  0.47119835
   0.00001862  0.00005929  0.35817564
   0.00009402  0.49999123  0.35817936
   0.49997416 -0.00007242  0.35819298
   0.49990493  0.50000533  0.35818339
   0.33323289  0.16614465  0.58387618
   0.33486528  0.66722263  0.58391885
   0.83420259  0.16232052  0.58326502
   0.83469040  0.67371339  0.58278443
   0.00137025  0.00130294  0.52787379
   0.00072625  0.50004166  0.52848437
   0.49929921 -0.00127801  0.52822219
   0.49892814  0.49972910  0.52848360
   0.33316429  0.16675537  0.41543339
   0.33314550  0.66638544  0.41537803
   0.83362166  0.16681765  0.41537235
   0.83339292  0.66668322  0.41535786
   0.16830819  0.33356487  0.64183054
   0.16545111  0.83420544  0.64048921
   0.67367419  0.33861952  0.63700313
   0.66500632  0.83299769  0.64145708
   0.45536522  0.05441927  0.72935279
   0.50504412  0.21732025  0.73735339
Direct configuration=    18
   0.16663933  0.33296737  0.38642932
   0.16657560  0.83362776  0.38664356
   0.66649796  0.33329593  0.38668894
   0.66695309  0.83342513  0.38666847
   0.00104787  0.00147013  0.61308164
   0.00254837  0.50176989  0.61196182
   0.50041344 -0.00226467  0.61145646
   0.50089777  0.50167211  0.61208266
   0.33267812  0.16654015  0.49984768
   0.33299511  0.66603065  0.49898678
   0.83409891  0.16641799  0.49968494
   0.83376458  0.66766802  0.49989577
   0.16708054  0.33368980  0.47119507
   0.16732843  0.83349888  0.47128569
   0.66620337  0.33286674  0.47137720
   0.66606473  0.83319115  0.47125360
   0.00002123  0.00006760  0.35782975
   0.00010945  0.49999120  0.35783564
   0.49996958 -0.00008458  0.35785261
   0.49989074  0.50000724  0.35783987
   0.33320938  0.16608702  0.58401209
   0.33502632  0.66725346  0.58406391
   0.83439950  0.16175664  0.58331985
   0.83491738  0.67472904  0.58277012
   0.00164886  0.00155137  0.52765223
   0.00084036  0.50005089  0.52837820
   0.49917827 -0.00146493  0.52805461
   0.49874401  0.49966191  0.52835868
   0.33313018  0.16676811  0.41517621
   0.33311515  0.66633832  0.41510991
   0.83367323  0.16683933  0.41510511
   0.83340512  0.66669268  0.41509097
   0.16856825  0.33371973  0.64214812
   0.16544567  0.83423017  0.64068333
   0.67402122  0.33878300  0.63701857
   0.66466637  0.83288082  0.64174728
   0.45676180  0.05361766  0.73002738
   0.50190367  0.21685728  0.73917599
Direct configuration=    19
   0.16664228  0.33300423  0.38664764
   0.16658206  0.83359684  0.38683866
   0.66651604  0.33330247  0.38687663
   0.66692546  0.83341416  0.38686140
   0.00096915  0.00134007  0.61290513
   0.00227470  0.50159875  0.61191149
   0.50029631 -0.00222311  0.61138075
   0.50080405  0.50148585  0.61200184
   0.33272198  0.16657371  0.49987298
   0.33298984  0.66604359  0.49908543
   0.83406948  0.16648367  0.49971997
   0.83372712  0.66755256  0.49991504
   0.16703839  0.33364726  0.47116112
   0.16727614  0.83349560  0.47124218
   0.66623936  0.33289891  0.47132069
   0.66611992  0.83321395  0.47121421
   0.00001937  0.00006167  0.35807636
   0.00009845  0.49999122  0.35808070
   0.49997284 -0.00007591  0.35809528
   0.49990086  0.50000587  0.35808479
   0.33322614  0.16612811  0.58391519
   0.33491151  0.66723148  0.58396048
   0.83425911  0.16215867  0.58328075
   0.83475555  0.67400491  0.58278032
   0.00145022  0.00137424  0.52781020
   0.00075901  0.50004430  0.52845389
   0.49926450 -0.00133166  0.52817409
   0.49887529  0.49970981  0.52844774
   0.33315450  0.16675903  0.41535957
   0.33313679  0.66637192  0.41530107
   0.83363646  0.16682387  0.41529564
   0.83339642  0.66668594  0.41528125
   0.16838283  0.33360932  0.64192169
   0.16544955  0.83421254  0.64054493
   0.67377380  0.33866644  0.63700756
   0.66490874  0.83296414  0.64154037
   0.45576608  0.05418918  0.72954642
   0.50414272  0.21718736  0.73787653
Direct configuration=    20
   0.16664213  0.33300236  0.38663659
   0.16658173  0.83359840  0.38682879
   0.66651513  0.33330214  0.38686713
   0.66692685  0.83341472  0.38685164
   0.00097314  0.00134666  0.61291406
   0.00228855  0.50160741  0.61191404
   0.50030223 -0.00222521  0.61138458
   0.50080879  0.50149528  0.61200593
   0.33271976  0.16657201  0.49987170
   0.33299011  0.66604294  0.49908044
   0.83407097  0.16648035  0.49971820
   0.83372902  0.66755841  0.49991407
   0.16704052  0.33364941  0.47116284
   0.16727879  0.83349577  0.47124438
   0.66623753  0.33289728  0.47132355
   0.66611712  0.83321279  0.47121620
   0.00001947  0.00006197  0.35806387
   0.00009901  0.49999122  0.35806830
   0.49997268 -0.00007635  0.35808300
   0.49990035  0.50000594  0.35807240
   0.33322529  0.16612603  0.58392009
   0.33491732  0.66723259  0.58396572
   0.83426621  0.16213832  0.58328273
   0.83476374  0.67404157  0.58277980
   0.00146028  0.00138321  0.52780220
   0.00076312  0.50004464  0.52845006
   0.49926013 -0.00133840  0.52816804
   0.49886864  0.49970739  0.52844324
   0.33315327  0.16675949  0.41535029
   0.33313569  0.66637022  0.41529139
   0.83363833  0.16682465  0.41528600
   0.83339686  0.66668628  0.41527162
   0.16839222  0.33361491  0.64193316
   0.16544935  0.83421343  0.64055193
   0.67378632  0.33867234  0.63700812
   0.66489648  0.83295993  0.64155085
   0.45581648  0.05416025  0.72957076
   0.50402938  0.21717066  0.73794230
Direct configuration=    21
   0.16664222  0.33300352  0.38664346
   0.16658194  0.83359743  0.38683493
   0.66651570  0.33330235  0.38687304
   0.66692598  0.83341437  0.38685771
   0.00097066  0.00134256  0.61290851
   0.00227994  0.50160203  0.61191245
   0.50029855 -0.00222390  0.61138220
   0.50080584  0.50148942  0.61200339