CeO2                                    
           1
     7.707464    0.000000    0.000000
    -3.853732    6.674860    0.000000
     0.000000    0.000000   28.319031
   Ce   O    C    O 
  12  24   1   1
Direct configuration=     1
   0.16666700  0.33333300  0.38888900
   0.16666700  0.83333300  0.38888900
   0.66666700  0.33333300  0.38888900
   0.66666700  0.83333300  0.38888900
   0.00000000  0.00000000  0.61111100
   0.00000000  0.50000000  0.61111100
   0.50000000  0.00000000  0.61111100
   0.50000000  0.50000000  0.61111100
   0.33333300  0.16666700  0.50000000
   0.33333300  0.66666700  0.50000000
   0.83333300  0.16666700  0.50000000
   0.83333300  0.66666700  0.50000000
   0.16666700  0.33333300  0.47222200
   0.16666700  0.83333300  0.47222200
   0.66666700  0.33333300  0.47222200
   0.66666700  0.83333300  0.47222200
   0.00000000  0.00000000  0.36111100
   0.00000000  0.50000000  0.36111100
   0.50000000  0.00000000  0.36111100
   0.50000000  0.50000000  0.36111100
   0.33333300  0.16666700  0.58333300
   0.33333300  0.66666700  0.58333300
   0.83333300  0.16666700  0.58333300
   0.83333300  0.66666700  0.58333300
   0.00000000  0.00000000  0.52777800
   0.00000000  0.50000000  0.52777800
   0.50000000  0.00000000  0.52777800
   0.50000000  0.50000000  0.52777800
   0.33333300  0.16666700  0.41666700
   0.33333300  0.66666700  0.41666700
   0.83333300  0.16666700  0.41666700
   0.83333300  0.66666700  0.41666700
   0.16666700  0.33333300  0.63888900
   0.16666700  0.83333300  0.63888900
   0.66666700  0.33333300  0.63888900
   0.66666700  0.83333300  0.63888900
   0.38888900  0.38888900  0.76422100
   0.38888900  0.38888900  0.72389500
Direct configuration=     2
   0.16666832  0.33333553  0.38860476
   0.16666806  0.83333226  0.38860469
   0.66666719  0.33333411  0.38860480
   0.66666469  0.83333180  0.38860478
   0.00005476  0.00025079  0.61131869
  -0.00000031  0.49974990  0.61133146
   0.50009209  0.00009323  0.61132359
   0.49974801  0.49975069  0.61151019
   0.33334147  0.16668746  0.49999937
   0.33333648  0.66665115  0.50000021
   0.83333865  0.16667419  0.50000191
   0.83331553  0.66665295  0.49999850
   0.16666839  0.33333477  0.47179779
   0.16667587  0.83333673  0.47179850
   0.66666291  0.33332568  0.47179746
   0.66666142  0.83333641  0.47179785
   0.00000071 -0.00000114  0.36090551
   0.00000003  0.50000177  0.36090553
   0.49999849 -0.00000061  0.36090575
   0.50000153  0.50000104  0.36090566
   0.33333773  0.16661271  0.58311980
   0.33336575  0.66674879  0.58312046
   0.83323841  0.16659272  0.58311582
   0.83336553  0.66670143  0.58312332
   0.00000423 -0.00000256  0.52820883
   0.00000573  0.50000839  0.52820565
   0.49999179 -0.00000492  0.52821155
   0.50000163  0.50000383  0.52819198
   0.33333449  0.16666530  0.41688748
   0.33333388  0.66666953  0.41688788
   0.83333116  0.16666633  0.41688659
   0.83333417  0.66666648  0.41688579
   0.16545677  0.33298654  0.63878655
   0.16671090  0.83337740  0.63915507
   0.66689118  0.33320770  0.63907521
   0.66671990  0.83346351  0.63913034
   0.38863463  0.38874667  0.76465128
   0.39015583  0.38948943  0.72375543
Direct configuration=     3
   0.16666830  0.33333551  0.38860801
   0.16666805  0.83333227  0.38860794
   0.66666719  0.33333410  0.38860805
   0.66666472  0.83333182  0.38860803
   0.00005414  0.00024792  0.61131631
  -0.00000031  0.49975276  0.61132894
   0.50009103  0.00009217  0.61132116
   0.49975089  0.49975354  0.61150563
   0.33334137  0.16668722  0.49999937
   0.33333644  0.66665133  0.50000020
   0.83333858  0.16667411  0.50000189
   0.83331573  0.66665311  0.49999852
   0.16666837  0.33333475  0.47180264
   0.16667577  0.83333669  0.47180334
   0.66666296  0.33332577  0.47180231
   0.66666148  0.83333637  0.47180270
   0.00000070 -0.00000113  0.36090786
   0.00000003  0.50000175  0.36090788
   0.49999851 -0.00000060  0.36090810
   0.50000151  0.50000102  0.36090800
   0.33333768  0.16661333  0.58312224
   0.33336538  0.66674786  0.58312289
   0.83323949  0.16659357  0.58311830
   0.83336516  0.66670104  0.58312572
   0.00000418 -0.00000253  0.52820391
   0.00000566  0.50000829  0.52820076
   0.49999189 -0.00000487  0.52820659
   0.50000161  0.50000379  0.52818724
   0.33333447  0.16666532  0.41688496
   0.33333387  0.66666950  0.41688536
   0.83333118  0.16666633  0.41688408
   0.83333416  0.66666648  0.41688328
   0.16547060  0.33299050  0.63878772
   0.16671039  0.83337689  0.63915203
   0.66688862  0.33320913  0.63907308
   0.66671930  0.83346202  0.63912758
   0.38863754  0.38874830  0.76464636
   0.39014135  0.38948257  0.72375703
Direct configuration=     4
   0.16666847  0.33333589  0.38855590
   0.16666824  0.83333219  0.38855583
   0.66666722  0.33333424  0.38855595
   0.66666437  0.83333171  0.38855596
   0.00005793  0.00028315  0.61135394
  -0.00000275  0.49971328  0.61136876
   0.50010478  0.00010496  0.61136087
   0.49971108  0.49971287  0.61157963
   0.33334392  0.16669266  0.49999911
   0.33333801  0.66664769  0.50000062
   0.83333931  0.16667531  0.50000198
   0.83331076  0.66664959  0.49999910
   0.16666801  0.33333451  0.47171996
   0.16667738  0.83333762  0.47172082
   0.66666231  0.33332403  0.47171958
   0.66666092  0.83333768  0.47172002
   0.00000084 -0.00000126  0.36086448
   0.00000006  0.50000201  0.36086450
   0.49999826 -0.00000070  0.36086475
   0.50000171  0.50000116  0.36086465
   0.33334081  0.16660763  0.58308602
   0.33337519  0.66676249  0.58308644
   0.83321655  0.16657563  0.58307913
   0.83336609  0.66670561  0.58308972
   0.00000556 -0.00000174  0.52828714
   0.00000654  0.50000865  0.52828326
   0.49999056 -0.00000509  0.52829024
   0.50000101  0.50000339  0.52826859
   0.33333472  0.16666512  0.41692265
   0.33333398  0.66666979  0.41692307
   0.83333095  0.16666628  0.41692164
   0.83333431  0.66666634  0.41692067
   0.16523308  0.33292218  0.63877000
   0.16672060  0.83338770  0.63920697
   0.66692980  0.33318442  0.63911244
   0.66672736  0.83348400  0.63917795
   0.38858837  0.38872038  0.76462906
   0.39040167  0.38960664  0.72383460
Direct configuration=     5
   0.16666898  0.33333704  0.38839956
   0.16666881  0.83333194  0.38839948
   0.66666733  0.33333468  0.38839965
   0.66666334  0.83333138  0.38839975
   0.00006933  0.00038882  0.61146682
  -0.00001006  0.49959484  0.61148823
   0.50014603  0.00014333  0.61148000
   0.49959165  0.49959084  0.61180165
   0.33335158  0.16670897  0.49999832
   0.33334271  0.66663678  0.50000185
   0.83334148  0.16667891  0.50000225
   0.83329586  0.66663903  0.50000086
   0.16666693  0.33333380  0.47147190
   0.16668221  0.83334041  0.47147328
   0.66666038  0.33331880  0.47147139
   0.66665924  0.83334159  0.47147200
   0.00000126 -0.00000168  0.36073435
   0.00000012  0.50000278  0.36073435
   0.49999751 -0.00000100  0.36073471
   0.50000228  0.50000156  0.36073458
   0.33335020  0.16659052  0.58297735
   0.33340464  0.66680637  0.58297709
   0.83314775  0.16652181  0.58296159
   0.83336890  0.66671933  0.58298172
   0.00000967  0.00000066  0.52853686
   0.00000917  0.50000973  0.52853075
   0.49998659 -0.00000574  0.52854120
   0.49999922  0.50000220  0.52851262
   0.33333545  0.16666453  0.41703574
   0.33333430  0.66667067  0.41703621
   0.83333029  0.16666613  0.41703433
   0.83333474  0.66666592  0.41703284
   0.16452049  0.33271720  0.63871685
   0.16675123  0.83342014  0.63937181
   0.66705335  0.33311029  0.63923054
   0.66675154  0.83354995  0.63932904
   0.38844086  0.38863663  0.76457716
   0.39118264  0.38997886  0.72406733
Direct configuration=     6
   0.16666999  0.33333935  0.38808688
   0.16666995  0.83333145  0.38808680
   0.66666755  0.33333555  0.38808706
   0.66666128  0.83333073  0.38808733
   0.00009211  0.00060017  0.61169259
  -0.00002469  0.49935796  0.61172717
   0.50022852  0.00022008  0.61171827
   0.49935279  0.49934678  0.61224567
   0.33336689  0.16674159  0.49999674
   0.33335212  0.66661496  0.50000433
   0.83334581  0.16668610  0.50000279
   0.83326606  0.66661791  0.50000438
   0.16666476  0.33333238  0.47097578
   0.16669187  0.83334600  0.47097819
   0.66665651  0.33330836  0.47097500
   0.66665588  0.83334941  0.47097595
   0.00000209 -0.00000250  0.36047408
   0.00000026  0.50000431  0.36047406
   0.49999601 -0.00000160  0.36047462
   0.50000343  0.50000237  0.36047443
   0.33336897  0.16655629  0.58276002
   0.33346353  0.66689414  0.58275839
   0.83301015  0.16641416  0.58272653
   0.83337452  0.66674676  0.58276572
   0.00001790  0.00000545  0.52903628
   0.00001442  0.50001188  0.52902574
   0.49997864 -0.00000706  0.52904311
   0.49999564  0.49999982  0.52900068
   0.33333691  0.16666334  0.41726190
   0.33333494  0.66667242  0.41726248
   0.83332895  0.16666582  0.41725972
   0.83333562  0.66666507  0.41725718
   0.16309533  0.33230724  0.63861055
   0.16681249  0.83348501  0.63970149
   0.66730046  0.33296203  0.63946672
   0.66679991  0.83368184  0.63963124
   0.38814584  0.38846913  0.76447336
   0.39274459  0.39072330  0.72453278
Direct configuration=     7
   0.16666923  0.33333762  0.38832096
   0.16666910  0.83333182  0.38832089
   0.66666739  0.33333490  0.38832108
   0.66666283  0.83333122  0.38832122
   0.00007505  0.00044194  0.61152357
  -0.00001374  0.49953530  0.61154829
   0.50016676  0.00016262  0.61153990
   0.49953161  0.49952949  0.61191326
   0.33335543  0.16671717  0.49999792
   0.33334508  0.66663129  0.50000248
   0.83334257  0.16668071  0.50000239
   0.83328837  0.66663372  0.50000174
   0.16666638  0.33333344  0.47134719
   0.16668464  0.83334182  0.47134884
   0.66665940  0.33331618  0.47134661
   0.66665840  0.83334356  0.47134731
   0.00000147 -0.00000188  0.36066893
   0.00000016  0.50000316  0.36066892
   0.49999713 -0.00000115  0.36066933
   0.50000257  0.50000177  0.36066919
   0.33335491  0.16658192  0.58292272
   0.33341944  0.66682843  0.58292212
   0.83311316  0.16649475  0.58290251
   0.83337031  0.66672622  0.58292742
   0.00001174  0.00000186  0.52866239
   0.00001049  0.50001027  0.52865517
   0.49998459 -0.00000607  0.52866736
   0.49999832  0.50000160  0.52863530
   0.33333582  0.16666423  0.41709258
   0.33333446  0.66667111  0.41709309
   0.83332995  0.16666605  0.41709099
   0.83333497  0.66666571  0.41708923
   0.16416226  0.33261415  0.63869013
   0.16676663  0.83343644  0.63945468
   0.66711546  0.33307302  0.63928990
   0.66676370  0.83358310  0.63940500
   0.38836670  0.38859453  0.76455107
   0.39157525  0.39016598  0.72418433
Direct configuration=     8
   0.16666926  0.33333768  0.38831304
   0.16666913  0.83333181  0.38831296
   0.66666739  0.33333492  0.38831316
   0.66666277  0.83333120  0.38831330
   0.00007563  0.00044730  0.61152929
  -0.00001411  0.49952930  0.61155435
   0.50016885  0.00016457  0.61154593
   0.49952556  0.49952331  0.61192451
   0.33335582  0.16671800  0.49999788
   0.33334532  0.66663074  0.50000254
   0.83334268  0.16668090  0.50000240
   0.83328762  0.66663319  0.50000183
   0.16666633  0.33333341  0.47133462
   0.16668488  0.83334196  0.47133629
   0.66665931  0.33331591  0.47133404
   0.66665831  0.83334376  0.47133474
   0.00000149 -0.00000190  0.36066233
   0.00000016  0.50000320  0.36066233
   0.49999709 -0.00000116  0.36066274
   0.50000260  0.50000179  0.36066259
   0.33335539  0.16658105  0.58291722
   0.33342093  0.66683065  0.58291658
   0.83310968  0.16649202  0.58289655
   0.83337046  0.66672692  0.58292195
   0.00001195  0.00000198  0.52867504
   0.00001062  0.50001032  0.52866771
   0.49998439 -0.00000611  0.52868007
   0.49999823  0.50000154  0.52864766
   0.33333585  0.16666420  0.41709831
   0.33333448  0.66667115  0.41709882
   0.83332992  0.16666604  0.41709670
   0.83333499  0.66666568  0.41709491
   0.16412616  0.33260376  0.63868744
   0.16676818  0.83343809  0.63946303
   0.66712172  0.33306926  0.63929589
   0.66676493  0.83358645  0.63941266
   0.38835923  0.38859028  0.76454844
   0.39161482  0.39018484  0.72419612
Direct configuration=     9
   0.16666925  0.33333765  0.38831695
   0.16666911  0.83333181  0.38831688
   0.66666739  0.33333491  0.38831707
   0.66666280  0.83333121  0.38831721
   0.00007534  0.00044466  0.61152647
  -0.00001392  0.49953226  0.61155136
   0.50016782  0.00016361  0.61154295
   0.49952855  0.49952636  0.61191895
   0.33335562  0.16671759  0.49999790
   0.33334520  0.66663101  0.50000251
   0.83334262  0.16668081  0.50000239
   0.83328799  0.66663345  0.50000179
   0.16666635  0.33333342  0.47134083
   0.16668476  0.83334189  0.47134249
   0.66665935  0.33331604  0.47134025
   0.66665836  0.83334366  0.47134095
   0.00000148 -0.00000189  0.36066559
   0.00000016  0.50000318  0.36066558
   0.49999711 -0.00000116  0.36066599
   0.50000258  0.50000178  0.36066585
   0.33335516  0.16658148  0.58291993
   0.33342020  0.66682956  0.58291931
   0.83311140  0.16649337  0.58289949
   0.83337039  0.66672658  0.58292465
   0.00001185  0.00000192  0.52866880
   0.00001056  0.50001030  0.52866152
   0.49998449 -0.00000609  0.52867379
   0.49999827  0.50000157  0.52864156
   0.33333584  0.16666421  0.41709548
   0.33333447  0.66667113  0.41709599
   0.83332994  0.16666604  0.41709388
   0.83333498  0.66666570  0.41709211
   0.16414398  0.33260889  0.63868877
   0.16676741  0.83343728  0.63945891
   0.66711863  0.33307112  0.63929293
   0.66676432  0.83358480  0.63940888
   0.38836292  0.38859238  0.76454974
   0.39159528  0.39017553  0.72419029
Direct configuration=    10
   0.16666911  0.33333759  0.38831729
   0.16666902  0.83333183  0.38831756
   0.66666746  0.33333494  0.38831742
   0.66666291  0.83333134  0.38831768
   0.00005107  0.00040310  0.61152392
  -0.00002379  0.49955717  0.61154821
   0.50015575  0.00014715  0.61154474
   0.49955194  0.49954512  0.61191756
   0.33335946  0.16672326  0.49999692
   0.33334890  0.66662921  0.50000334
   0.83334074  0.16668000  0.50000100
   0.83328186  0.66663021  0.50000421
   0.16666474  0.33333186  0.47132672
   0.16668498  0.83334283  0.47132857
   0.66665948  0.33331476  0.47132617
   0.66665957  0.83334569  0.47132686
   0.00000159 -0.00000159  0.36064579
   0.00000024  0.50000304  0.36064575
   0.49999719 -0.00000106  0.36064616
   0.50000235  0.50000167  0.36064603
   0.33336419  0.16659760  0.58293292
   0.33343497  0.66682874  0.58293085
   0.83308864  0.16647624  0.58290373
   0.83335129  0.66671989  0.58293596
   0.00001435  0.00000610  0.52868075
   0.00001040  0.50000691  0.52867300
   0.49998409 -0.00000415  0.52868541
   0.49999501  0.49999770  0.52865846
   0.33333589  0.16666472  0.41708354
   0.33333438  0.66667064  0.41708389
   0.83333029  0.16666636  0.41708196
   0.83333470  0.66666550  0.41708015
   0.16409810  0.33259482  0.63869473
   0.16677513  0.83344701  0.63948055
   0.66711588  0.33306651  0.63931207
   0.66675643  0.83357407  0.63943091
   0.38833936  0.38857838  0.76456224
   0.39171035  0.39023284  0.72420294
Direct configuration=    11
   0.16666868  0.33333742  0.38831832
   0.16666875  0.83333187  0.38831963
   0.66666766  0.33333501  0.38831848
   0.66666324  0.83333171  0.38831910
  -0.00002175  0.00027842  0.61151629
  -0.00005341  0.49963190  0.61153879
   0.50011955  0.00009778  0.61155011
   0.49962210  0.49960139  0.61191339
   0.33337096  0.16674025  0.49999398
   0.33336000  0.66662379  0.50000584
   0.83333511  0.16667756  0.49999680
   0.83326347  0.66662049  0.50001147
   0.16665989  0.33332717  0.47128438
   0.16668565  0.83334567  0.47128682
   0.66665987  0.33331089  0.47128393
   0.66666321  0.83335177  0.47128459
   0.00000191 -0.00000068  0.36058639
   0.00000049  0.50000261  0.36058627
   0.49999740 -0.00000077  0.36058665
   0.50000166  0.50000135  0.36058658
   0.33339128  0.16664598  0.58297187
   0.33347928  0.66682631  0.58296545
   0.83302035  0.16642484  0.58291644
   0.83329398  0.66669985  0.58296988
   0.00002188  0.00001862  0.52871663
   0.00000994  0.49999675  0.52870744
   0.49998288  0.00000168  0.52872028
   0.49998523  0.49998608  0.52870917
   0.33333604  0.16666626  0.41704770
   0.33333410  0.66666919  0.41704762
   0.83333137  0.16666731  0.41704623
   0.83333389  0.66666493  0.41704429
   0.16396047  0.33255261  0.63871262
   0.16679826  0.83347622  0.63954549
   0.66710762  0.33305269  0.63936950
   0.66673276  0.83354190  0.63949701
   0.38826866  0.38853636  0.76459973
   0.39205554  0.39040479  0.72424087
Direct configuration=    12
   0.16666784  0.33333708  0.38832037
   0.16666822  0.83333196  0.38832376
   0.66666806  0.33333517  0.38832059
   0.66666391  0.83333246  0.38832194
  -0.00016740  0.00002906  0.61150101
  -0.00011263  0.49978137  0.61151993
   0.50004716 -0.00000095  0.61156084
   0.49976241  0.49971394  0.61190505
   0.33339395  0.16677425  0.49998810
   0.33338219  0.66661295  0.50001084
   0.83332385  0.16667270  0.49998841
   0.83322670  0.66660105  0.50002599
   0.16665019  0.33331779  0.47119971
   0.16668699  0.83335133  0.47120331
   0.66666063  0.33330316  0.47119945
   0.66667050  0.83336393  0.47120006
   0.00000256  0.00000115  0.36046759
   0.00000100  0.50000175  0.36046729
   0.49999784 -0.00000020  0.36046764
   0.50000028  0.50000072  0.36046769
   0.33344547  0.16674274  0.58304976
   0.33356792  0.66682143  0.58303466
   0.83288378  0.16632205  0.58294186
   0.83317938  0.66665976  0.58303771
   0.00003693  0.00004366  0.52878838
   0.00000902  0.49997644  0.52877630
   0.49998046  0.00001334  0.52879000
   0.49996567  0.49996283  0.52881059
   0.33333635  0.16666934  0.41697601
   0.33333355  0.66666627  0.41697506
   0.83333352  0.16666922  0.41697475
   0.83333226  0.66666378  0.41697257
   0.16368519  0.33246820  0.63874840
   0.16684453  0.83353464  0.63967537
   0.66709109  0.33302505  0.63948436
   0.66668543  0.83347755  0.63962921
   0.38812728  0.38845234  0.76467471
   0.39274591  0.39074868  0.72431674
Direct configuration=    13
   0.16666615  0.33333640  0.38832446
   0.16666715  0.83333215  0.38833201
   0.66666886  0.33333549  0.38832481
   0.66666524  0.83333395  0.38832761
  -0.00045869 -0.00046965  0.61147047
  -0.00023108  0.50008031  0.61148222
   0.49990236 -0.00019843  0.61158232
   0.50004305  0.49993903  0.61188838
   0.33343995  0.16684225  0.49997634
   0.33342658  0.66659128  0.50002083
   0.83330133  0.16666298  0.49997162
   0.83315316  0.66656216  0.50005502
   0.16663080  0.33329904  0.47103036
   0.16668966  0.83336266  0.47103630
   0.66666217  0.33328769  0.47103050
   0.66668508  0.83338826  0.47103099
   0.00000386  0.00000480  0.36022999
   0.00000201  0.50000004  0.36022933
   0.49999870  0.00000095  0.36022961
   0.49999753  0.49999945  0.36022989
   0.33355385  0.16693625  0.58320556
   0.33374518  0.66681168  0.58317307
   0.83261064  0.16611647  0.58299270
   0.83295018  0.66657958  0.58317338
   0.00006704  0.00009374  0.52893189
   0.00000717  0.49993581  0.52891404
   0.49997562  0.00003665  0.52892944
   0.49992654  0.49991634  0.52901343
   0.33333696  0.16667549  0.41683265
   0.33333245  0.66666045  0.41682994
   0.83333783  0.16667302  0.41683180
   0.83332899  0.66666149  0.41682913
   0.16313463  0.33229937  0.63881995
   0.16693706  0.83365148  0.63993513
   0.66705804  0.33296977  0.63971408
   0.66659076  0.83334887  0.63989360
   0.38784452  0.38828429  0.76482468
   0.39412666  0.39143647  0.72446847
Direct configuration=    14
   0.16666641  0.33333861  0.38826517
   0.16666342  0.83332836  0.38827702
   0.66667217  0.33334022  0.38826522
   0.66666595  0.83333130  0.38826892
  -0.00051329 -0.00050070  0.61151727
  -0.00027649  0.50006461  0.61152935
   0.49988704 -0.00021067  0.61164067
   0.50002720  0.49993007  0.61193777
   0.33344753  0.16683971  0.49997642
   0.33344035  0.66660536  0.50001803
   0.83327939  0.16664709  0.49996847
   0.83314658  0.66656255  0.50004140
   0.16664006  0.33330347  0.47102661
   0.16667980  0.83335794  0.47103594
   0.66666197  0.33330166  0.47102782
   0.66668513  0.83337422  0.47102974
   0.00000421  0.00000671  0.36015476
   0.00000168  0.49999840  0.36015379
   0.50000031  0.00000244  0.36015439
   0.49999691  0.49999868  0.36015442
   0.33358681  0.16698312  0.58326036
   0.33381182  0.66683403  0.58321998
   0.83246327  0.16600809  0.58300494
   0.83287382  0.66655739  0.58321870
   0.00007522  0.00007399  0.52892686
   0.00001082  0.49995735  0.52890880
   0.49993653  0.00002237  0.52892029
   0.49993440  0.49991630  0.52902818
   0.33334016  0.16668101  0.41678386
   0.33333496  0.66665794  0.41678215
   0.83333789  0.16667372  0.41678091
   0.83332389  0.66665863  0.41678385
   0.16296632  0.33224949  0.63884525
   0.16694119  0.83367336  0.64001336
   0.66705402  0.33297856  0.63978694
   0.66655853  0.83327763  0.63998099
   0.38771739  0.38820649  0.76489052
   0.39473464  0.39174850  0.72453690
Direct configuration=    15
   0.16666718  0.33334526  0.38808729
   0.16665225  0.83331700  0.38811203
   0.66668208  0.33335444  0.38808644
   0.66666809  0.83332334  0.38809285
  -0.00067711 -0.00059385  0.61165767
  -0.00041273  0.50001753  0.61167074
   0.49984108 -0.00024738  0.61181573
   0.49997966  0.49990318  0.61208593
   0.33347027  0.16683211  0.49997667
   0.33348166  0.66664763  0.50000962
   0.83321357  0.16659943  0.49995900
   0.83312683  0.66656369  0.50000056
   0.16666784  0.33331677  0.47101537
   0.16665019  0.83334380  0.47103484
   0.66666137  0.33334356  0.47101977
   0.66668527  0.83333210  0.47102598
   0.00000528  0.00001245  0.35992907
   0.00000070  0.49999348  0.35992718
   0.50000512  0.00000689  0.35992875
   0.49999506  0.49999636  0.35992802
   0.33368568  0.16712373  0.58342475
   0.33401176  0.66690109  0.58336071
   0.83202114  0.16568295  0.58304165
   0.83264474  0.66649083  0.58335465
   0.00009974  0.00001474  0.52891179
   0.00002176  0.50002196  0.52889307
   0.49981928 -0.00002046  0.52889283
   0.49995797  0.49991617  0.52907243
   0.33334978  0.16669759  0.41663747
   0.33334249  0.66665042  0.41663877
   0.83333809  0.16667583  0.41662824
   0.83330859  0.66665006  0.41664802
   0.16246139  0.33209982  0.63892114
   0.16695357  0.83373900  0.64024804
   0.66704194  0.33300492  0.64000553
   0.66646183  0.83306390  0.64024314
   0.38733600  0.38797309  0.76508805
   0.39655856  0.39268456  0.72474221
Direct configuration=    16
   0.16666874  0.33335856  0.38773155
   0.16662990  0.83329427  0.38778207
   0.66670190  0.33338287  0.38772888
   0.66667237  0.83330741  0.38774070
  -0.00100474 -0.00078015  0.61193849
  -0.00068519  0.49992337  0.61195352
   0.49974916 -0.00032082  0.61216586
   0.49988458  0.49984941  0.61238226
   0.33351574  0.16681690  0.49997717
   0.33356429  0.66673216  0.49999280
   0.83308193  0.16650410  0.49994007
   0.83308735  0.66656599  0.49991886
   0.16672341  0.33334337  0.47099289
   0.16659099  0.83331552  0.47103265
   0.66666017  0.33342738  0.47100368
   0.66668555  0.83324785  0.47101846
   0.00000740  0.00002392  0.35947768
  -0.00000126  0.49998366  0.35947397
   0.50001475  0.00001580  0.35947746
   0.49999137  0.49999172  0.35947522
   0.33388343  0.16740495  0.58375354
   0.33441162  0.66703520  0.58364216
   0.83113689  0.16503267  0.58311509
   0.83218659  0.66635771  0.58362656
   0.00014880 -0.00010376  0.52888163
   0.00004365  0.50015119  0.52886160
   0.49958477 -0.00010612  0.52883792
   0.50000512  0.49991590  0.52916092
   0.33336900  0.16673074  0.41634469
   0.33335756  0.66663537  0.41635201
   0.83333847  0.16668004  0.41632290
   0.83327798  0.66663291  0.41637634
   0.16145153  0.33180050  0.63907292
   0.16697833  0.83387028  0.64071740
   0.66701779  0.33305765  0.64044271
   0.66626843  0.83263646  0.64076744
   0.38657323  0.38750630  0.76548311
   0.40020642  0.39455670  0.72515283
Direct configuration=    17
   0.16667184  0.33338515  0.38702005
   0.16658519  0.83324881  0.38712213
   0.66674154  0.33343973  0.38701377
   0.66668093  0.83327556  0.38703641
  -0.00166000 -0.00115275  0.61250011
  -0.00123013  0.49973505  0.61251907
   0.49956531 -0.00046768  0.61286611
   0.49969441  0.49974187  0.61297491
   0.33360669  0.16678648  0.49997817
   0.33372953  0.66690122  0.49995916
   0.83281865  0.16631344  0.49990220
   0.83300839  0.66657058  0.49975546
   0.16683454  0.33339657  0.47094793
   0.16647258  0.83325896  0.47102828
   0.66665777  0.33359500  0.47097150
   0.66668611  0.83307935  0.47100342
   0.00001166  0.00004687  0.35857490
  -0.00000519  0.49996400  0.35856754
   0.50003400  0.00003362  0.35857489
   0.49998398  0.49998245  0.35856961
   0.33427892  0.16796739  0.58441112
   0.33521135  0.66730342  0.58420508
   0.82936839  0.16373211  0.58326195
   0.83127028  0.66609147  0.58417038
   0.00024692 -0.00034074  0.52882132
   0.00008742  0.50040965  0.52879866
   0.49911576 -0.00027744  0.52872810
   0.50009941  0.49991538  0.52933791
   0.33340745  0.16679703  0.41575914
   0.33338770  0.66660528  0.41577850
   0.83333924  0.16668847  0.41571223
   0.83321676  0.66659863  0.41583299
   0.15943181  0.33120186  0.63937648
   0.16702785  0.83413285  0.64165612
   0.66696949  0.33316310  0.64131706
   0.66588163  0.83178157  0.64181604
   0.38504768  0.38657272  0.76627322
   0.40750212  0.39830097  0.72597407
Direct configuration=    18
   0.16667039  0.33337276  0.38735162
   0.16660602  0.83327000  0.38742967
   0.66672307  0.33341324  0.38734702
   0.66667694  0.83329040  0.38736462
  -0.00135464 -0.00097912  0.61223839
  -0.00097618  0.49982281  0.61225551
   0.49965099 -0.00039924  0.61253979
   0.49978303  0.49979199  0.61269873
   0.33356431  0.16680065  0.49997771
   0.33365253  0.66682243  0.49997484
   0.83294134  0.16640229  0.49991984
   0.83304518  0.66656844  0.49983161
   0.16678275  0.33337178  0.47096888
   0.16652776  0.83328532  0.47103032
   0.66665889  0.33351689  0.47098650
   0.66668585  0.83315787  0.47101043
   0.00000968  0.00003617  0.35899561
  -0.00000336  0.49997316  0.35898994
   0.50002503  0.00002532  0.35899550
   0.49998742  0.49998677  0.35899163
   0.33409461  0.16770529  0.58410468
   0.33483867  0.66717843  0.58394275
   0.83019253  0.16433818  0.58319351
   0.83169729  0.66621554  0.58391695
   0.00020119 -0.00023030  0.52884942
   0.00006702  0.50028921  0.52882799
   0.49933433 -0.00019760  0.52877928
   0.50005547  0.49991562  0.52925543
   0.33338953  0.16676614  0.41603201
   0.33337366  0.66661930  0.41604577
   0.83333888  0.16668455  0.41599681
   0.83324529  0.66661460  0.41608620
   0.16037302  0.33148083  0.63923501
   0.16700477  0.83401049  0.64121867
   0.66699200  0.33311396  0.64090960
   0.66606188  0.83217996  0.64132738
   0.38575860  0.38700778  0.76590502
   0.40410225  0.39655610  0.72559136
Direct configuration=    19
   0.16667573  0.33336427  0.38723400
   0.16663776  0.83329701  0.38731184
   0.66669795  0.33338081  0.38722028
   0.66666684  0.83330519  0.38723438
  -0.00144530 -0.00096911  0.61233393
  -0.00108693  0.49971793  0.61234437
   0.49959501 -0.00040830  0.61265524
   0.49969063  0.49973866  0.61281559
   0.33354896  0.16680667  0.49998913
   0.33362718  0.66680007  0.49997937
   0.83293159  0.16640228  0.49990851
   0.83304887  0.66655896  0.49981929
   0.16680939  0.33338762  0.47097051
   0.16651096  0.83327240  0.47102180
   0.66664909  0.33353963  0.47098269
   0.66667063  0.83312207  0.47100866
   0.00000118  0.00001916  0.35885543
  -0.00000564  0.49998511  0.35884851
   0.50002398  0.00002031  0.35885536
   0.50000338  0.49999932  0.35884796
   0.33407279  0.16765353  0.58419850
   0.33486102  0.66726844  0.58402555
   0.82990751  0.16413936  0.58323693
   0.83167805  0.66622286  0.58399521
   0.00023063 -0.00028010  0.52883633
   0.00008416  0.50034602  0.52882477
   0.49917573 -0.00025877  0.52874395
   0.50005834  0.49991221  0.52923358
   0.33339847  0.16676206  0.41593669
   0.33338736  0.66663466  0.41595150
   0.83332242  0.16667293  0.41589740
   0.83324034  0.66661555  0.41598878
   0.16005108  0.33137279  0.63932379
   0.16692389  0.83397630  0.64134150
   0.66707433  0.33312756  0.64104347
   0.66606378  0.83213115  0.64149079
   0.38556803  0.38687284  0.76581641
   0.40542882  0.39726856  0.72599397
Direct configuration=    20
   0.16667266  0.33336915  0.38730173
   0.16661949  0.83328145  0.38737968
   0.66671241  0.33339948  0.38729326
   0.66667266  0.83329668  0.38730937
  -0.00139310 -0.00097487  0.61227891
  -0.00102316  0.49977832  0.61229321
   0.49962724 -0.00040308  0.61258876
   0.49974383  0.49976936  0.61274830
   0.33355780  0.16680321  0.49998255
   0.33364177  0.66681295  0.49997676
   0.83293720  0.16640229  0.49991504
   0.83304675  0.66656442  0.49982638
   0.16679405  0.33337850  0.47096957
   0.16652063  0.83327984  0.47102670
   0.66665473  0.33352654  0.47098488
   0.66667939  0.83314268  0.47100968
   0.00000607  0.00002895  0.35893614
  -0.00000433  0.49997823  0.35892995
   0.50002458  0.00002319  0.35893605
   0.49999419  0.49999210  0.35893068
   0.33408536  0.16768333  0.58414448
   0.33484815  0.66721661  0.58397788
   0.83007162  0.16425384  0.58321193
   0.83168913  0.66621864  0.58395015
   0.00021368 -0.00025143  0.52884387
   0.00007429  0.50031331  0.52882662
   0.49926705 -0.00022355  0.52876429
   0.50005669  0.49991418  0.52924616
   0.33339332  0.16676441  0.41599157
   0.33337947  0.66662582  0.41600578
   0.83333190  0.16667962  0.41595464
   0.83324319  0.66661501  0.41604487
   0.16023645  0.33143500  0.63927267
   0.16697046  0.83399599  0.64127078
   0.66702692  0.33311973  0.64096639
   0.66606269  0.83215925  0.64139670
   0.38567776  0.38695054  0.76586743
   0.40466499  0.39685833  0.72576215
Direct configuration=    21
   0.16667794  0.33335717  0.38728008
   0.16665703  0.83331459  0.38735077
   0.66668072  0.33335935  0.38726280
   0.66666027  0.83331460  0.38727392
  -0.00139879 -0.00091925  0.61229736
  -0.00106320  0.49970031  0.61230376
   0.49958891 -0.00039659  0.61260855
   0.49967793  0.49973367  0.61278424