CeO2                                    
           1
     7.707464    0.000000    0.000000
    -3.853732    6.674860    0.000000
     0.000000    0.000000   28.319031
   Ce   O    C    O 
  12  24   1   1
Direct configuration=     1
   0.16666700  0.33333300  0.38888900
   0.16666700  0.83333300  0.38888900
   0.66666700  0.33333300  0.38888900
   0.66666700  0.83333300  0.38888900
   0.00000000  0.00000000  0.61111100
   0.00000000  0.50000000  0.61111100
   0.50000000  0.00000000  0.61111100
   0.50000000  0.50000000  0.61111100
   0.33333300  0.16666700  0.50000000
   0.33333300  0.66666700  0.50000000
   0.83333300  0.16666700  0.50000000
   0.83333300  0.66666700  0.50000000
   0.16666700  0.33333300  0.47222200
   0.16666700  0.83333300  0.47222200
   0.66666700  0.33333300  0.47222200
   0.66666700  0.83333300  0.47222200
   0.00000000  0.00000000  0.36111100
   0.00000000  0.50000000  0.36111100
   0.50000000  0.00000000  0.36111100
   0.50000000  0.50000000  0.36111100
   0.33333300  0.16666700  0.58333300
   0.33333300  0.66666700  0.58333300
   0.83333300  0.16666700  0.58333300
   0.83333300  0.66666700  0.58333300
   0.00000000  0.00000000  0.52777800
   0.00000000  0.50000000  0.52777800
   0.50000000  0.00000000  0.52777800
   0.50000000  0.50000000  0.52777800
   0.33333300  0.16666700  0.41666700
   0.33333300  0.66666700  0.41666700
   0.83333300  0.16666700  0.41666700
   0.83333300  0.66666700  0.41666700
   0.16666700  0.33333300  0.63888900
   0.16666700  0.83333300  0.63888900
   0.66666700  0.33333300  0.63888900
   0.66666700  0.83333300  0.63888900
   0.44444400  0.00000000  0.76422100
   0.44444400  0.00000000  0.72389500
Direct configuration=     2
   0.16666421  0.33333199  0.38860645
   0.16666833  0.83333377  0.38860660
   0.66666768  0.33333091  0.38860628
   0.66666792  0.83333559  0.38860682
  -0.00000466 -0.00016704  0.61132766
  -0.00005225  0.50014788  0.61133276
   0.49985236  0.00000310  0.61157588
   0.50012208  0.50002798  0.61132769
   0.33334703  0.16664750  0.50000126
   0.33334661  0.66670030  0.50000107
   0.83330173  0.16665180  0.50000142
   0.83333648  0.66666880  0.50000036
   0.16666475  0.33333433  0.47179384
   0.16665478  0.83332471  0.47179261
   0.66667580  0.33334512  0.47179284
   0.66667237  0.83332781  0.47179322
  -0.00000129 -0.00000037  0.36090526
  -0.00000024  0.49999940  0.36090517
   0.50000145 -0.00000026  0.36090518
   0.50000115  0.50000107  0.36090502
   0.33331522  0.16671412  0.58312193
   0.33333074  0.66660542  0.58312167
   0.83338899  0.16668156  0.58312280
   0.83328654  0.66666150  0.58311606
  -0.00000559  0.00000024  0.52820879
  -0.00000084  0.49999625  0.52820657
   0.50000757 -0.00000073  0.52818038
   0.50000178  0.50000422  0.52821015
   0.33333300  0.16666709  0.41688167
   0.33333398  0.66666679  0.41688255
   0.83333440  0.16666645  0.41688228
   0.83333362  0.66666762  0.41688302
   0.16668905  0.33333020  0.63915984
   0.16581496  0.83284552  0.63894788
   0.66693951  0.33379981  0.63905783
   0.66680446  0.83320201  0.63910683
   0.44430305 -0.00003012  0.76461265
   0.44509126  0.00017766  0.72362571
Direct configuration=     3
   0.16666470  0.33333217  0.38865604
   0.16666809  0.83333363  0.38865616
   0.66666756  0.33333128  0.38865590
   0.66666776  0.83333513  0.38865635
  -0.00000384 -0.00013772  0.61128964
  -0.00004308  0.50012193  0.61129384
   0.49987827  0.00000256  0.61149429
   0.50010066  0.50002307  0.61128965
   0.33334456  0.16665092  0.50000104
   0.33334422  0.66669445  0.50000088
   0.83330722  0.16665447  0.50000117
   0.83333587  0.66666848  0.50000030
   0.16666514  0.33333409  0.47186899
   0.16665693  0.83332616  0.47186798
   0.66667426  0.33334299  0.47186817
   0.66667143  0.83332872  0.47186848
  -0.00000106 -0.00000030  0.36094137
  -0.00000020  0.49999951  0.36094130
   0.50000120 -0.00000021  0.36094130
   0.50000095  0.50000088  0.36094117
   0.33331834  0.16670585  0.58315898
   0.33333114  0.66661622  0.58315876
   0.83337917  0.16667900  0.58315969
   0.83329469  0.66666247  0.58315413
  -0.00000461  0.00000020  0.52813318
  -0.00000069  0.49999691  0.52813135
   0.50000624 -0.00000061  0.52810976
   0.50000147  0.50000348  0.52813430
   0.33333300  0.16666707  0.41684399
   0.33333381  0.66666683  0.41684472
   0.83333416  0.16666655  0.41684450
   0.83333351  0.66666752  0.41684510
   0.16668518  0.33333069  0.63911230
   0.16596450  0.83293108  0.63893754
   0.66689168  0.33371788  0.63902820
   0.66678033  0.83322500  0.63906860
   0.44432779 -0.00002483  0.76454391
   0.44497766  0.00014648  0.72367298
Direct configuration=     4
   0.16666428  0.33333205  0.38860100
   0.16666831  0.83333373  0.38860103
   0.66666770  0.33333098  0.38860072
   0.66666791  0.83333552  0.38860127
  -0.00000661 -0.00016610  0.61133161
  -0.00005288  0.50014605  0.61133659
   0.49985180  0.00000334  0.61158593
   0.50012086  0.50002847  0.61133199
   0.33334855  0.16664617  0.50000123
   0.33334803  0.66670309  0.50000132
   0.83329888  0.16665045  0.50000190
   0.83333639  0.66666866  0.49999992
   0.16666498  0.33333427  0.47178194
   0.16665402  0.83332450  0.47178062
   0.66667598  0.33334595  0.47178085
   0.66667278  0.83332728  0.47178122
  -0.00000128 -0.00000039  0.36089635
  -0.00000024  0.49999942  0.36089626
   0.50000146 -0.00000026  0.36089626
   0.50000119  0.50000108  0.36089612
   0.33331726  0.16671305  0.58312086
   0.33333341  0.66660858  0.58312053
   0.83338544  0.16667932  0.58312163
   0.83328317  0.66666096  0.58311301
  -0.00000529 -0.00000033  0.52822041
  -0.00000101  0.49999692  0.52821815
   0.50000704 -0.00000067  0.52819276
   0.50000209  0.50000404  0.52822180
   0.33333304  0.16666702  0.41688323
   0.33333401  0.66666685  0.41688406
   0.83333436  0.16666643  0.41688379
   0.83333367  0.66666762  0.41688457
   0.16669059  0.33333009  0.63917036
   0.16579045  0.83283167  0.63895196
   0.66694586  0.33381158  0.63906537
   0.66680664  0.83319921  0.63911597
   0.44429945 -0.00003078  0.76451456
   0.44511571  0.00018419  0.72372888
Direct configuration=     5
   0.16666301  0.33333169  0.38843587
   0.16666895  0.83333401  0.38843563
   0.66666813  0.33333009  0.38843519
   0.66666835  0.83333668  0.38843604
  -0.00001491 -0.00025121  0.61145752
  -0.00008228  0.50021841  0.61146486
   0.49977240  0.00000570  0.61186084
   0.50018145  0.50004468  0.61145902
   0.33336050  0.16663190  0.50000180
   0.33335948  0.66672901  0.50000264
   0.83327387  0.16663838  0.50000408
   0.83333795  0.66666920  0.49999878
   0.16666448  0.33333480  0.47152078
   0.16664529  0.83331952  0.47151856
   0.66668115  0.33335483  0.47151889
   0.66667685  0.83332293  0.47151944
  -0.00000194 -0.00000067  0.36076129
  -0.00000035  0.49999915  0.36076115
   0.50000226 -0.00000039  0.36076113
   0.50000192  0.50000168  0.36076096
   0.33331399  0.16673466  0.58300651
   0.33334021  0.66658564  0.58300583
   0.83340425  0.16668028  0.58300744
   0.83324862  0.66665644  0.58298962
  -0.00000731 -0.00000191  0.52848210
  -0.00000195  0.49999697  0.52847852
   0.50000945 -0.00000085  0.52844176
   0.50000397  0.50000572  0.52848428
   0.33333315  0.16666688  0.41700093
   0.33333460  0.66666693  0.41700210
   0.83333495  0.16666606  0.41700166
   0.83333414  0.66666794  0.41700295
   0.16670681  0.33332827  0.63934452
   0.16526830  0.83253342  0.63899521
   0.66710839  0.33409268  0.63917690
   0.66688556  0.83312181  0.63925806
   0.44421443 -0.00004865  0.76442653
   0.44552989  0.00029733  0.72389660
Direct configuration=     6
   0.16666048  0.33333097  0.38810560
   0.16667024  0.83333458  0.38810482
   0.66666898  0.33332830  0.38810413
   0.66666923  0.83333899  0.38810557
  -0.00003150 -0.00042144  0.61170935
  -0.00014109  0.50036312  0.61172139
   0.49961359  0.00001042  0.61241068
   0.50030265  0.50007709  0.61171306
   0.33338441  0.16660336  0.50000295
   0.33338237  0.66678085  0.50000528
   0.83322386  0.16661426  0.50000844
   0.83334106  0.66667028  0.49999650
   0.16666349  0.33333586  0.47099847
   0.16662785  0.83330955  0.47099443
   0.66669149  0.33337258  0.47099499
   0.66668499  0.83331425  0.47099588
  -0.00000326 -0.00000122  0.36049117
  -0.00000058  0.49999862  0.36049094
   0.50000384 -0.00000066  0.36049088
   0.50000338  0.50000288  0.36049063
   0.33330746  0.16677788  0.58277781
   0.33335382  0.66653975  0.58277645
   0.83344187  0.16668219  0.58277907
   0.83317951  0.66664739  0.58274284
  -0.00001136 -0.00000507  0.52900549
  -0.00000384  0.49999705  0.52899928
   0.50001426 -0.00000121  0.52893977
   0.50000772  0.50000907  0.52900926
   0.33333336  0.16666659  0.41723634
   0.33333578  0.66666708  0.41723817
   0.83333615  0.16666532  0.41723739
   0.83333508  0.66666858  0.41723972
   0.16673925  0.33332465  0.63969285
   0.16422399  0.83193693  0.63908171
   0.66743345  0.33465489  0.63939994
   0.66704340  0.83296703  0.63954226
   0.44404439 -0.00008437  0.76425045
   0.44635824  0.00052361  0.72423204
Direct configuration=     7
   0.16666227  0.33333148  0.38833861
   0.16666933  0.83333418  0.38833822
   0.66666838  0.33332956  0.38833770
   0.66666861  0.83333736  0.38833872
  -0.00001979 -0.00030134  0.61153168
  -0.00009960  0.50026102  0.61154040
   0.49972564  0.00000709  0.61202275
   0.50021714  0.50005422  0.61153382
   0.33336754  0.16662350  0.50000214
   0.33336622  0.66674428  0.50000341
   0.83325914  0.16663128  0.50000536
   0.83333886  0.66666952  0.49999811
   0.16666419  0.33333511  0.47136698
   0.16664016  0.83331658  0.47136422
   0.66668419  0.33336005  0.47136462
   0.66667925  0.83332038  0.47136527
  -0.00000233 -0.00000083  0.36068175
  -0.00000042  0.49999900  0.36068159
   0.50000272 -0.00000047  0.36068155
   0.50000235  0.50000204  0.36068135
   0.33331207  0.16674739  0.58293917
   0.33334422  0.66657212  0.58293829
   0.83341532  0.16668084  0.58294020
   0.83322827  0.66665377  0.58291695
  -0.00000850 -0.00000284  0.52863622
  -0.00000251  0.49999699  0.52863187
   0.50001086 -0.00000096  0.52858841
   0.50000507  0.50000671  0.52863887
   0.33333321  0.16666680  0.41707025
   0.33333495  0.66666697  0.41707161
   0.83333531  0.16666584  0.41707107
   0.83333442  0.66666813  0.41707267
   0.16671636  0.33332721  0.63944709
   0.16496078  0.83235777  0.63902068
   0.66720411  0.33425823  0.63924258
   0.66693204  0.83307624  0.63934175
   0.44416436 -0.00005917  0.76437468
   0.44577381  0.00036396  0.72399538
Direct configuration=     8
   0.16666222  0.33333147  0.38833232
   0.16666935  0.83333419  0.38833191
   0.66666839  0.33332953  0.38833139
   0.66666862  0.83333740  0.38833242
  -0.00002011 -0.00030458  0.61153648
  -0.00010072  0.50026378  0.61154529
   0.49972261  0.00000718  0.61203323
   0.50021945  0.50005484  0.61153866
   0.33336800  0.16662295  0.50000216
   0.33336665  0.66674526  0.50000346
   0.83325819  0.16663082  0.50000545
   0.83333892  0.66666954  0.49999806
   0.16666417  0.33333513  0.47135702
   0.16663982  0.83331639  0.47135423
   0.66668439  0.33336039  0.47135464
   0.66667940  0.83332021  0.47135529
  -0.00000235 -0.00000084  0.36067660
  -0.00000042  0.49999899  0.36067643
   0.50000275 -0.00000048  0.36067640
   0.50000238  0.50000206  0.36067620
   0.33331194  0.16674821  0.58293481
   0.33334448  0.66657125  0.58293392
   0.83341604  0.16668088  0.58293584
   0.83322695  0.66665360  0.58291225
  -0.00000858 -0.00000290  0.52864620
  -0.00000255  0.49999699  0.52864180
   0.50001096 -0.00000096  0.52859790
   0.50000514  0.50000677  0.52864888
   0.33333321  0.16666679  0.41707474
   0.33333497  0.66666697  0.41707611
   0.83333533  0.16666583  0.41707556
   0.83333444  0.66666814  0.41707719
   0.16671698  0.33332714  0.63945373
   0.16494088  0.83234640  0.63902233
   0.66721031  0.33426895  0.63924683
   0.66693505  0.83307329  0.63934717
   0.44416112 -0.00005985  0.76437132
   0.44578960  0.00036828  0.72400177
Direct configuration=     9
   0.16666224  0.33333147  0.38833583
   0.16666934  0.83333419  0.38833542
   0.66666838  0.33332954  0.38833491
   0.66666862  0.83333738  0.38833593
  -0.00001993 -0.00030277  0.61153380
  -0.00010009  0.50026224  0.61154256
   0.49972430  0.00000713  0.61202739
   0.50021817  0.50005450  0.61153597
   0.33336774  0.16662325  0.50000215
   0.33336641  0.66674471  0.50000344
   0.83325872  0.16663108  0.50000540
   0.83333889  0.66666953  0.49999809
   0.16666418  0.33333512  0.47136257
   0.16664001  0.83331650  0.47135979
   0.66668428  0.33336020  0.47136020
   0.66667931  0.83332030  0.47136085
  -0.00000234 -0.00000084  0.36067947
  -0.00000042  0.49999899  0.36067931
   0.50000274 -0.00000048  0.36067927
   0.50000236  0.50000205  0.36067907
   0.33331201  0.16674775  0.58293724
   0.33334433  0.66657174  0.58293635
   0.83341564  0.16668086  0.58293827
   0.83322769  0.66665370  0.58291487
  -0.00000854 -0.00000287  0.52864064
  -0.00000253  0.49999699  0.52863626
   0.50001091 -0.00000096  0.52859261
   0.50000510  0.50000674  0.52864330
   0.33333321  0.16666679  0.41707224
   0.33333496  0.66666697  0.41707360
   0.83333532  0.16666583  0.41707306
   0.83333443  0.66666813  0.41707467
   0.16671664  0.33332718  0.63945003
   0.16495197  0.83235274  0.63902141
   0.66720685  0.33426298  0.63924446
   0.66693337  0.83307493  0.63934415
   0.44416293 -0.00005947  0.76437319
   0.44578080  0.00036587  0.72399821
Direct configuration=    10
   0.16666242  0.33333164  0.38833583
   0.16666935  0.83333407  0.38833484
   0.66666839  0.33332964  0.38833440
   0.66666849  0.83333719  0.38833545
  -0.00002927 -0.00028401  0.61153201
  -0.00009933  0.50024021  0.61153987
   0.49973543  0.00000803  0.61202810
   0.50020208  0.50005448  0.61153599
   0.33337275  0.16661938  0.50000145
   0.33337117  0.66675342  0.50000387
   0.83324964  0.16662669  0.50000677
   0.83333803  0.66666890  0.49999571
   0.16666497  0.33333487  0.47134741
   0.16663781  0.83331602  0.47134428
   0.66668458  0.33336258  0.47134464
   0.66668047  0.83331864  0.47134526
  -0.00000228 -0.00000101  0.36065743
  -0.00000047  0.49999911  0.36065726
   0.50000266 -0.00000046  0.36065723
   0.50000253  0.50000202  0.36065706
   0.33332209  0.16673930  0.58295182
   0.33335583  0.66659030  0.58295050
   0.83339570  0.16666993  0.58295216
   0.83321614  0.66665165  0.58292092
  -0.00000694 -0.00000493  0.52865459
  -0.00000297  0.49999986  0.52865018
   0.50000823 -0.00000075  0.52861222
   0.50000577  0.50000561  0.52865716
   0.33333350  0.16666632  0.41705989
   0.33333513  0.66666761  0.41706112
   0.83333469  0.16666557  0.41706053
   0.83333462  0.66666811  0.41706219
   0.16672140  0.33332680  0.63947452
   0.16491912  0.83233461  0.63903632
   0.66721059  0.33427331  0.63926528
   0.66693025  0.83307479  0.63936788
   0.44414874 -0.00006222  0.76437933
   0.44584670  0.00038271  0.72400455
Direct configuration=    11
   0.16666296  0.33333214  0.38833582
   0.16666936  0.83333373  0.38833310
   0.66666842  0.33332994  0.38833286
   0.66666811  0.83333663  0.38833398
  -0.00005729 -0.00022770  0.61152664
  -0.00009706  0.50017412  0.61153177
   0.49976883  0.00001074  0.61203021
   0.50015380  0.50005444  0.61153605
   0.33338778  0.16660774  0.49999936
   0.33338546  0.66677954  0.50000515
   0.83322238  0.16661355  0.50001088
   0.83333544  0.66666701  0.49998857
   0.16666735  0.33333413  0.47130193
   0.16663122  0.83331459  0.47129774
   0.66668548  0.33336969  0.47129794
   0.66668393  0.83331365  0.47129848
  -0.00000211 -0.00000154  0.36059131
  -0.00000063  0.49999948  0.36059113
   0.50000244 -0.00000041  0.36059110
   0.50000301  0.50000195  0.36059100
   0.33335235  0.16671393  0.58299555
   0.33339033  0.66664601  0.58299294
   0.83333587  0.16663714  0.58299382
   0.83318150  0.66664550  0.58293907
  -0.00000217 -0.00001113  0.52869643
  -0.00000429  0.50000845  0.52869194
   0.50000019 -0.00000011  0.52867106
   0.50000775  0.50000224  0.52869874
   0.33333436  0.16666490  0.41702283
   0.33333566  0.66666954  0.41702366
   0.83333283  0.16666480  0.41702296
   0.83333521  0.66666805  0.41702476
   0.16673570  0.33332566  0.63954798
   0.16482054  0.83228023  0.63908107
   0.66722179  0.33430429  0.63932775
   0.66692087  0.83307435  0.63943907
   0.44410620 -0.00007046  0.76439774
   0.44604442  0.00043321  0.72402359
Direct configuration=    12
   0.16666402  0.33333313  0.38833580
   0.16666940  0.83333306  0.38832962
   0.66666848  0.33333053  0.38832979
   0.66666736  0.83333551  0.38833106
  -0.00011332 -0.00011510  0.61151590
  -0.00009252  0.50004194  0.61151557
   0.49983564  0.00001617  0.61203445
   0.50005726  0.50005435  0.61153618
   0.33341783  0.16658446  0.49999517
   0.33341405  0.66683177  0.50000772
   0.83316788  0.16658726  0.50001909
   0.83333027  0.66666324  0.49997430
   0.16667209  0.33333265  0.47121098
   0.16661804  0.83331173  0.47120467
   0.66668727  0.33338393  0.47120456
   0.66669085  0.83330368  0.47120491
  -0.00000176 -0.00000260  0.36045907
  -0.00000095  0.50000020  0.36045887
   0.50000199 -0.00000032  0.36045884
   0.50000397  0.50000180  0.36045889
   0.33341285  0.16666320  0.58308303
   0.33345933  0.66675741  0.58307782
   0.83321621  0.16657156  0.58307714
   0.83311221  0.66663321  0.58297538
   0.00000738 -0.00002352  0.52878012
  -0.00000693  0.50002564  0.52877545
   0.49998411  0.00000117  0.52878873
   0.50001172  0.49999550  0.52878190
   0.33333609  0.16666205  0.41694873
   0.33333673  0.66667338  0.41694875
   0.83332910  0.16666324  0.41694780
   0.83333638  0.66666792  0.41694989
   0.16676429  0.33332338  0.63969491
   0.16462339  0.83217147  0.63917055
   0.66724419  0.33436626  0.63945270
   0.66690211  0.83307347  0.63958145
   0.44402111 -0.00008695  0.76443457
   0.44643986  0.00053421  0.72406165
Direct configuration=    13
   0.16666616  0.33333512  0.38833576
   0.16666946  0.83333170  0.38832265
   0.66666859  0.33333172  0.38832364
   0.66666586  0.83333327  0.38832521
  -0.00022539  0.00011011  0.61149442
  -0.00008343  0.49977758  0.61148319
   0.49996926  0.00002702  0.61204291
   0.49986417  0.50005417  0.61153643
   0.33347794  0.16653791  0.49998680
   0.33347121  0.66693625  0.50001287
   0.83305886  0.16653468  0.50003551
   0.83331993  0.66665569  0.49994575
   0.16668159  0.33332968  0.47102906
   0.16659168  0.83330602  0.47101851
   0.66669086  0.33341240  0.47101778
   0.66670470  0.83328373  0.47101779
  -0.00000107 -0.00000471  0.36019459
  -0.00000158  0.50000165  0.36019435
   0.50000108 -0.00000012  0.36019432
   0.50000591  0.50000151  0.36019468
   0.33353386  0.16656174  0.58325799
   0.33359733  0.66698021  0.58324757
   0.83297690  0.16644039  0.58324378
   0.83297364  0.66660863  0.58304799
   0.00002648 -0.00004831  0.52894750
  -0.00001222  0.50006002  0.52894248
   0.49995196  0.00000372  0.52902406
   0.50001966  0.49998203  0.52894822
   0.33333954  0.16665636  0.41680053
   0.33333885  0.66668107  0.41679892
   0.83332165  0.16666012  0.41679749
   0.83333872  0.66666766  0.41680016
   0.16682148  0.33331882  0.63998876
   0.16422909  0.83195396  0.63934952
   0.66728898  0.33449020  0.63970258
   0.66686460  0.83307173  0.63986622
   0.44385094 -0.00011992  0.76450821
   0.44723072  0.00073621  0.72413778
Direct configuration=    14
   0.16666541  0.33333442  0.38833578
   0.16666944  0.83333218  0.38832508
   0.66666855  0.33333130  0.38832579
   0.66666639  0.83333405  0.38832725
  -0.00018620  0.00003136  0.61150193
  -0.00008661  0.49987003  0.61149451
   0.49992253  0.00002322  0.61203995
   0.49993169  0.50005423  0.61153634
   0.33345692  0.16655419  0.49998973
   0.33345122  0.66689971  0.50001107
   0.83309698  0.16655307  0.50002977
   0.83332354  0.66665833  0.49995573
   0.16667827  0.33333072  0.47109268
   0.16660090  0.83330802  0.47108361
   0.66668960  0.33340244  0.47108309
   0.66669986  0.83329071  0.47108323
  -0.00000132 -0.00000397  0.36028707
  -0.00000136  0.50000114  0.36028685
   0.50000140 -0.00000019  0.36028682
   0.50000523  0.50000161  0.36028707
   0.33349155  0.16659722  0.58319681
   0.33354908  0.66690230  0.58318821
   0.83306059  0.16648626  0.58318551
   0.83302209  0.66661722  0.58302260
   0.00001980 -0.00003964  0.52888897
  -0.00001037  0.50004800  0.52888408
   0.49996321  0.00000283  0.52894177
   0.50001688  0.49998674  0.52889006
   0.33333834  0.16665835  0.41685235
   0.33333811  0.66667838  0.41685131
   0.83332426  0.16666121  0.41685005
   0.83333790  0.66666775  0.41685252
   0.16680148  0.33332041  0.63988601
   0.16436697  0.83203002  0.63928694
   0.66727332  0.33444686  0.63961520
   0.66687772  0.83307234  0.63976664
   0.44391045 -0.00010839  0.76448246
   0.44695417  0.00066557  0.72411116
Direct configuration=    15
   0.16666329  0.33333448  0.38827116
   0.16667014  0.83333105  0.38825289
   0.66667054  0.33332990  0.38825364
   0.66666655  0.83333637  0.38825534
  -0.00022497  0.00001742  0.61156720
  -0.00011681  0.49985816  0.61155820
   0.49991381  0.00002196  0.61210699
   0.49992559  0.50006138  0.61160757
   0.33346322  0.16655641  0.49999239
   0.33346134  0.66690548  0.50001127
   0.83308775  0.16654573  0.50002497
   0.83331175  0.66665601  0.49995545
   0.16667401  0.33332953  0.47109670
   0.16661393  0.83331385  0.47108321
   0.66668534  0.33338765  0.47108330
   0.66669478  0.83330080  0.47108429
  -0.00000123 -0.00000613  0.36019918
  -0.00000210  0.50000260  0.36019886
   0.50000081  0.00000001  0.36019850
   0.50000732  0.50000186  0.36019935
   0.33353085  0.16657165  0.58326044
   0.33360063  0.66697101  0.58324878
   0.83297655  0.16643696  0.58324419
   0.83294016  0.66660332  0.58304127
   0.00003380 -0.00000640  0.52887810
   0.00000105  0.50003085  0.52887404
   0.49996494  0.00000506  0.52895845
   0.49997629  0.49996583  0.52887731
   0.33334330  0.16665384  0.41679742
   0.33334189  0.66668704  0.41679709
   0.83331537  0.16665745  0.41679702
   0.83333814  0.66666703  0.41679327
   0.16680589  0.33331608  0.63997687
   0.16424851  0.83196092  0.63934688
   0.66728382  0.33446199  0.63969900
   0.66685245  0.83309568  0.63986370
   0.44383626 -0.00012173  0.76453476
   0.44733308  0.00075893  0.72412694
Direct configuration=    16
   0.16665691  0.33333464  0.38807732
   0.16667223  0.83332768  0.38803632
   0.66667651  0.33332568  0.38803719
   0.66666706  0.83334330  0.38803959
  -0.00034125 -0.00002439  0.61176300
  -0.00020742  0.49982255  0.61174926
   0.49988764  0.00001817  0.61230811
   0.49990727  0.50008285  0.61182125
   0.33348211  0.16656309  0.50000039
   0.33349170  0.66692276  0.50001188
   0.83306005  0.16652372  0.50001056
   0.83327636  0.66664907  0.49995462
   0.16666121  0.33332594  0.47110877
   0.16665302  0.83333135  0.47108201
   0.66667254  0.33334325  0.47108390
   0.66667953  0.83333108  0.47108748
  -0.00000096 -0.00001260  0.35993552
  -0.00000433  0.50000696  0.35993487
   0.49999903  0.00000063  0.35993353
   0.50001358  0.50000259  0.35993619
   0.33364876  0.16649493  0.58345134
   0.33375528  0.66717713  0.58343050
   0.83272442  0.16628907  0.58342023
   0.83269437  0.66656160  0.58309728
   0.00007579  0.00009334  0.52884552
   0.00003532  0.49997943  0.52884391
   0.49997014  0.00001174  0.52900852
   0.49985453  0.49990308  0.52883908
   0.33335821  0.16664033  0.41663264
   0.33335323  0.66671301  0.41663443
   0.83328869  0.16664616  0.41663792
   0.83333883  0.66666486  0.41661551
   0.16681909  0.33330307  0.64024947
   0.16389312  0.83175362  0.63952672
   0.66731531  0.33450739  0.63995038
   0.66677663  0.83316570  0.64015489
   0.44361368 -0.00016176  0.76469167
   0.44846981  0.00103900  0.72417426
Direct configuration=    17
   0.16664415  0.33333496  0.38768962
   0.16667641  0.83332093  0.38760317
   0.66668845  0.33331724  0.38760430
   0.66666807  0.83335718  0.38760809
  -0.00057383 -0.00010800  0.61215459
  -0.00038864  0.49975133  0.61213139
   0.49983530  0.00001059  0.61271034
   0.49987065  0.50012578  0.61224861
   0.33351989  0.16657644  0.50001638
   0.33355241  0.66695734  0.50001310
   0.83300466  0.16647970  0.49998174
   0.83320559  0.66663518  0.49995295
   0.16663562  0.33331877  0.47113291
   0.16673121  0.83336634  0.47107961
   0.66664694  0.33325447  0.47108512
   0.66664903  0.83339164  0.47109385
  -0.00000042 -0.00002556  0.35940818
  -0.00000878  0.50001567  0.35940689
   0.49999547  0.00000186  0.35940358
   0.50002610  0.50000405  0.35940986
   0.33388459  0.16634149  0.58383313
   0.33406459  0.66758937  0.58379392
   0.83222018  0.16599330  0.58377231
   0.83220277  0.66647817  0.58320932
   0.00015977  0.00029282  0.52878034
   0.00010386  0.49987657  0.52878367
   0.49998053  0.00002510  0.52910864
   0.49961101  0.49977760  0.52876262
   0.33338802  0.16661330  0.41630308
   0.33337591  0.66676494  0.41630911
   0.83323535  0.16662357  0.41631971
   0.83334023  0.66666054  0.41626000
   0.16684551  0.33327704  0.64079466
   0.16318234  0.83133902  0.63988639
   0.66737830  0.33459818  0.64045316
   0.66662500  0.83330573  0.64073726
   0.44316852 -0.00024181  0.76500548
   0.45074327  0.00159913  0.72426891
Direct configuration=    18
   0.16664776  0.33333487  0.38779937
   0.16667523  0.83332284  0.38772579
   0.66668507  0.33331963  0.38772684
   0.66666778  0.83335325  0.38773024
  -0.00050799 -0.00008433  0.61204374
  -0.00033734  0.49977149  0.61202321
   0.49985012  0.00001274  0.61259648
   0.49988102  0.50011363  0.61212763
   0.33350920  0.16657266  0.50001185
   0.33353522  0.66694755  0.50001276
   0.83302034  0.16649216  0.49998990
   0.83322562  0.66663911  0.49995343
   0.16664287  0.33332080  0.47112607
   0.16670908  0.83335644  0.47108029
   0.66665418  0.33327960  0.47108477
   0.66665766  0.83337450  0.47109205
  -0.00000057 -0.00002189  0.35955746
  -0.00000752  0.50001320  0.35955635
   0.49999647  0.00000151  0.35955360
   0.50002256  0.50000364  0.35955886
   0.33381783  0.16638492  0.58372505
   0.33397703  0.66747267  0.58369104
   0.83236292  0.16607703  0.58367264
   0.83234194  0.66650179  0.58317760
   0.00013599  0.00023635  0.52879879
   0.00008445  0.49990569  0.52880072
   0.49997759  0.00002132  0.52908030
   0.49967994  0.49981312  0.52878427
   0.33337958  0.16662095  0.41639637
   0.33336949  0.66675024  0.41640120
   0.83325045  0.16662996  0.41640979
   0.83333983  0.66666177  0.41636064
   0.16683803  0.33328441  0.64064033
   0.16338355  0.83145639  0.63978457
   0.66736047  0.33457247  0.64031083
   0.66666793  0.83326609  0.64057240
   0.44329453 -0.00021915  0.76491665
   0.45009969  0.00144057  0.72424212
Direct configuration=    19
   0.16664755  0.33333489  0.38778197
   0.16667543  0.83332273  0.38770641
   0.66668526  0.33331934  0.38770740
   0.66666772  0.83335356  0.38771082
  -0.00051819 -0.00008978  0.61206124
  -0.00034613  0.49976997  0.61204031
   0.49984659  0.00001223  0.61261480
   0.49988008  0.50011534  0.61214666
   0.33351030  0.16657325  0.50001256
   0.33353716  0.66694845  0.50001275
   0.83301859  0.16649072  0.49998849
   0.83322265  0.66663851  0.49995306
   0.16664160  0.33332049  0.47112718
   0.16671280  0.83335807  0.47108049
   0.66665290  0.33327535  0.47108509
   0.66665608  0.83337733  0.47109257
  -0.00000060 -0.00002221  0.35953408
  -0.00000766  0.50001334  0.35953294
   0.49999647  0.00000156  0.35953003
   0.50002290  0.50000369  0.35953553
   0.33382655  0.16637963  0.58374201
   0.33398903  0.66748780  0.58370718
   0.83234344  0.16606537  0.58368826
   0.83231982  0.66649810  0.58318318
   0.00013995  0.00024605  0.52879595
   0.00008772  0.49990070  0.52879818
   0.49997812  0.00002184  0.52908373
   0.49966781  0.49980694  0.52878082
   0.33338082  0.16661998  0.41638160
   0.33337053  0.66675229  0.41638660
   0.83324826  0.16662898  0.41639545
   0.83333972  0.66666156  0.41634474
   0.16683822  0.33328312  0.64066404
   0.16335093  0.83143747  0.63980088
   0.66736447  0.33457835  0.64033316
   0.66666242  0.83327149  0.64059821
   0.44327676 -0.00022211  0.76491459
   0.45020197  0.00146559  0.72426308
Direct configuration=    20
   0.16664691  0.33333494  0.38772976
   0.16667605  0.83332239  0.38764829
   0.66668583  0.33331846  0.38764907
   0.66666754  0.83335451  0.38765253
  -0.00054880 -0.00010612  0.61211375
  -0.00037249  0.49976541  0.61209159
   0.49983599  0.00001068  0.61266977
   0.49987729  0.50012049  0.61220377
   0.33351363  0.16657502  0.50001470
   0.33354296  0.66695115  0.50001271
   0.83301332  0.16648641  0.49998429
   0.83321373  0.66663671  0.49995196
   0.16663782  0.33331956  0.47113048
   0.16672397  0.83336296  0.47108109
   0.66664906  0.33326260  0.47108604
   0.66665134  0.83338583  0.47109413
  -0.00000070 -0.00002317  0.35946396
  -0.00000808  0.50001376  0.35946270
   0.49999646  0.00000170  0.35945930
   0.50002391  0.50000383  0.35946554
   0.33385270  0.16636375  0.58379287
   0.33402501  0.66753318  0.58375558
   0.83228498  0.16603041  0.58373511
   0.83225348  0.66648705  0.58319992
   0.00015182  0.00027514  0.52878744
   0.00009751  0.49988573  0.52879053
   0.49997971  0.00002341  0.52909403
   0.49963139  0.49978841  0.52877046
   0.33338453  0.16661706  0.41633726
   0.33337362  0.66675845  0.41634278
   0.83324168  0.16662601  0.41635244
   0.83333938  0.66666095  0.41629705
   0.16683878  0.33327923  0.64073517
   0.16325305  0.83138073  0.63984980
   0.66737647  0.33459598  0.64040014
   0.66664590  0.83328769  0.64067564
   0.44322346 -0.00023099  0.76490841
   0.45050881  0.00154066  0.72432595
Direct configuration=    21
   0.16664563  0.33333505  0.38762535
   0.16667728  0.83332171  0.38753205
   0.66668697  0.33331671  0.38753241
   0.66666717  0.83335639  0.38753596
  -0.00061003 -0.00013880  0.61221876
  -0.00042522  0.49975630  0.61219415
   0.49981481  0.00000760  0.61277971
   0.49987170  0.50013079  0.61231798