CeO2                                    
           1
     7.707464    0.000000    0.000000
    -3.853732    6.674860    0.000000
     0.000000    0.000000   28.319031
   Ce   O    C    O 
  12  24   1   1
Direct configuration=     1
   0.16666700  0.33333300  0.38888900
   0.16666700  0.83333300  0.38888900
   0.66666700  0.33333300  0.38888900
   0.66666700  0.83333300  0.38888900
   0.00000000  0.00000000  0.61111100
   0.00000000  0.50000000  0.61111100
   0.50000000  0.00000000  0.61111100
   0.50000000  0.50000000  0.61111100
   0.33333300  0.16666700  0.50000000
   0.33333300  0.66666700  0.50000000
   0.83333300  0.16666700  0.50000000
   0.83333300  0.66666700  0.50000000
   0.16666700  0.33333300  0.47222200
   0.16666700  0.83333300  0.47222200
   0.66666700  0.33333300  0.47222200
   0.66666700  0.83333300  0.47222200
   0.00000000  0.00000000  0.36111100
   0.00000000  0.50000000  0.36111100
   0.50000000  0.00000000  0.36111100
   0.50000000  0.50000000  0.36111100
   0.33333300  0.16666700  0.58333300
   0.33333300  0.66666700  0.58333300
   0.83333300  0.16666700  0.58333300
   0.83333300  0.66666700  0.58333300
   0.00000000  0.00000000  0.52777800
   0.00000000  0.50000000  0.52777800
   0.50000000  0.00000000  0.52777800
   0.50000000  0.50000000  0.52777800
   0.33333300  0.16666700  0.41666700
   0.33333300  0.66666700  0.41666700
   0.83333300  0.16666700  0.41666700
   0.83333300  0.66666700  0.41666700
   0.16666700  0.33333300  0.63888900
   0.16666700  0.83333300  0.63888900
   0.66666700  0.33333300  0.63888900
   0.66666700  0.83333300  0.63888900
   0.05555600  0.11111100  0.72389500
   0.05555600  0.11111100  0.76422100
Direct configuration=     2
   0.16666645  0.33333190  0.38861729
   0.16666401  0.83333300  0.38861744
   0.66666791  0.33333482  0.38861625
   0.66666999  0.83333300  0.38861744
   0.00020669  0.00041337  0.61188382
   0.00021457  0.50009582  0.61127657
   0.49994138 -0.00011724  0.61130812
   0.49988125  0.50009582  0.61127657
   0.33327247  0.16664071  0.50001087
   0.33333136  0.66666373  0.50000395
   0.83336723  0.16664071  0.50001087
   0.83336362  0.66672823  0.50001173
   0.16667383  0.33334667  0.47179120
   0.16667591  0.83332738  0.47179168
   0.66666608  0.33333116  0.47179281
   0.66665248  0.83332738  0.47179168
  -0.00000078 -0.00000156  0.36090175
  -0.00000058  0.50000069  0.36090158
   0.49999970 -0.00000060  0.36090167
   0.50000126  0.50000069  0.36090158
   0.33343830  0.16669497  0.58311748
   0.33338018  0.66676135  0.58311551
   0.83325567  0.16669497  0.58311748
   0.83326530  0.66653159  0.58311797
  -0.00000477 -0.00000954  0.52814714
   0.00000184  0.50000391  0.52820771
   0.49999702 -0.00000597  0.52821078
   0.50000206  0.50000391  0.52820771
   0.33333316  0.16666562  0.41688146
   0.33333351  0.66666803  0.41688198
   0.83333146  0.16666562  0.41688146
   0.83333301  0.66666702  0.41688104
   0.16795351  0.33590602  0.63866611
   0.16690471  0.83307636  0.63910202
   0.66663708  0.33327317  0.63918361
   0.66617265  0.83307636  0.63910202
   0.05350259  0.10700419  0.72367237
   0.05635987  0.11271873  0.76459725
Direct configuration=     3
   0.16666634  0.33333167  0.38856266
   0.16666341  0.83333300  0.38856284
   0.66666810  0.33333519  0.38856140
   0.66667059  0.83333300  0.38856284
   0.00024825  0.00049649  0.61203921
   0.00025771  0.50011509  0.61130987
   0.49992960 -0.00014081  0.61134776
   0.49985738  0.50011509  0.61130987
   0.33326030  0.16663542  0.50001306
   0.33333103  0.66666307  0.50000474
   0.83337412  0.16663542  0.50001306
   0.83336977  0.66674055  0.50001409
   0.16667521  0.33334942  0.47170458
   0.16667770  0.83332626  0.47170515
   0.66666589  0.33333078  0.47170652
   0.66664955  0.83332626  0.47170515
  -0.00000094 -0.00000187  0.36085967
  -0.00000069  0.50000082  0.36085947
   0.49999964 -0.00000072  0.36085958
   0.50000152  0.50000082  0.36085947
   0.33345947  0.16670060  0.58307414
   0.33338966  0.66678032  0.58307178
   0.83324012  0.16670060  0.58307414
   0.83325168  0.66650437  0.58307473
  -0.00000573 -0.00001145  0.52822136
   0.00000221  0.50000469  0.52829412
   0.49999642 -0.00000717  0.52829781
   0.50000248  0.50000469  0.52829412
   0.33333319  0.16666535  0.41692459
   0.33333362  0.66666823  0.41692521
   0.83333115  0.16666535  0.41692459
   0.83333301  0.66666703  0.41692408
   0.16821219  0.33642339  0.63862129
   0.16695251  0.83302475  0.63914485
   0.66663107  0.33326114  0.63924285
   0.66607325  0.83302475  0.63914485
   0.05308971  0.10617842  0.72362761
   0.05652150  0.11304200  0.76467291
Direct configuration=     4
   0.16666619  0.33333138  0.38851808
   0.16666294  0.83333314  0.38851832
   0.66666823  0.33333546  0.38851679
   0.66667120  0.83333314  0.38851832
   0.00027959  0.00055919  0.61216710
   0.00028380  0.50013761  0.61133446
   0.49992323 -0.00015354  0.61137910
   0.49985381  0.50013761  0.61133446
   0.33324472  0.16662784  0.50001442
   0.33333120  0.66666339  0.50000414
   0.83338212  0.16662784  0.50001442
   0.83337783  0.66675665  0.50001623
   0.16667720  0.33335341  0.47162964
   0.16668025  0.83332464  0.47163028
   0.66666565  0.33333030  0.47163207
   0.66664539  0.83332464  0.47163028
  -0.00000101 -0.00000202  0.36082001
  -0.00000068  0.50000097  0.36081979
   0.49999959 -0.00000082  0.36081991
   0.50000165  0.50000097  0.36081979
   0.33346811  0.16670030  0.58304313
   0.33340242  0.66680585  0.58303610
   0.83323119  0.16670030  0.58304313
   0.83324570  0.66649240  0.58304321
  -0.00000597 -0.00001194  0.52828870
   0.00000378  0.50000548  0.52836869
   0.49999580 -0.00000840  0.52837312
   0.50000170  0.50000548  0.52836869
   0.33333309  0.16666517  0.41695752
   0.33333367  0.66666834  0.41695827
   0.83333108  0.16666517  0.41695752
   0.83333310  0.66666720  0.41695691
   0.16843501  0.33686901  0.63858743
   0.16699228  0.83298606  0.63918612
   0.66662461  0.33324821  0.63929762
   0.66599478  0.83298606  0.63918612
   0.05271578  0.10543055  0.72369536
   0.05666299  0.11332498  0.76463077
Direct configuration=     5
   0.16666579  0.33333059  0.38839711
   0.16666166  0.83333352  0.38839750
   0.66666859  0.33333619  0.38839570
   0.66667286  0.83333352  0.38839750
   0.00036467  0.00072934  0.61251419
   0.00035461  0.50019874  0.61140121
   0.49990596 -0.00018808  0.61146416
   0.49984413  0.50019874  0.61140121
   0.33320241  0.16660725  0.50001812
   0.33333164  0.66666428  0.50000251
   0.83340384  0.16660725  0.50001812
   0.83339968  0.66680035  0.50002202
   0.16668262  0.33336423  0.47142626
   0.16668717  0.83332025  0.47142707
   0.66666499  0.33332898  0.47143002
   0.66663408  0.83332025  0.47142707
  -0.00000120 -0.00000241  0.36071237
  -0.00000065  0.50000136  0.36071209
   0.49999945 -0.00000110  0.36071226
   0.50000201  0.50000136  0.36071209
   0.33349154  0.16669949  0.58295895
   0.33343706  0.66687511  0.58293927
   0.83320695  0.16669949  0.58295895
   0.83322946  0.66645991  0.58295767
  -0.00000663 -0.00001326  0.52847145
   0.00000803  0.50000762  0.52857106
   0.49999412 -0.00001175  0.52857750
   0.49999959  0.50000762  0.52857106
   0.33333280  0.16666469  0.41704689
   0.33333381  0.66666863  0.41704798
   0.83333089  0.16666469  0.41704689
   0.83333333  0.66666765  0.41704600
   0.16903970  0.33807840  0.63849555
   0.16710023  0.83288104  0.63929812
   0.66660707  0.33321314  0.63944626
   0.66578182  0.83288104  0.63929812
   0.05170096  0.10340091  0.72387925
   0.05704698  0.11409297  0.76451641
Direct configuration=     6
   0.16666500  0.33332899  0.38815516
   0.16665909  0.83333428  0.38815585
   0.66666932  0.33333764  0.38815352
   0.66667618  0.83333428  0.38815585
   0.00053482  0.00106965  0.61320836
   0.00049623  0.50032100  0.61153472
   0.49987142 -0.00025717  0.61163429
   0.49982477  0.50032100  0.61153472
   0.33311780  0.16656608  0.50002553
   0.33333253  0.66666606  0.49999926
   0.83344729  0.16656608  0.50002553
   0.83344338  0.66688776  0.50003360
   0.16669344  0.33338589  0.47101949
   0.16670101  0.83331148  0.47102067
   0.66666367  0.33332635  0.47102592
   0.66661147  0.83331148  0.47102067
  -0.00000159 -0.00000319  0.36049708
  -0.00000059  0.50000214  0.36049669
   0.49999917 -0.00000167  0.36049696
   0.50000273  0.50000214  0.36049669
   0.33353841  0.16669786  0.58279061
   0.33350632  0.66701365  0.58274562
   0.83315846  0.16669786  0.58279061
   0.83319697  0.66639494  0.58278657
  -0.00000795 -0.00001590  0.52883696
   0.00001652  0.50001189  0.52897582
   0.49999077 -0.00001845  0.52898627
   0.49999537  0.50001189  0.52897582
   0.33333221  0.16666372  0.41722563
   0.33333411  0.66666921  0.41722740
   0.83333051  0.16666372  0.41722563
   0.83333378  0.66666856  0.41722419
   0.17024908  0.34049717  0.63831179
   0.16731612  0.83267101  0.63952213
   0.66657200  0.33314299  0.63974356
   0.66535590  0.83267101  0.63952213
   0.04967132  0.09934164  0.72424703
   0.05781497  0.11562894  0.76428770
Direct configuration=     7
   0.16666524  0.33332948  0.38822826
   0.16665987  0.83333405  0.38822886
   0.66666910  0.33333720  0.38822670
   0.66667518  0.83333405  0.38822886
   0.00048341  0.00096682  0.61299861
   0.00045344  0.50028406  0.61149438
   0.49988185 -0.00023629  0.61158288
   0.49983062  0.50028406  0.61149438
   0.33314336  0.16657852  0.50002329
   0.33333226  0.66666552  0.50000024
   0.83343416  0.16657852  0.50002329
   0.83343018  0.66686135  0.50003010
   0.16669017  0.33337934  0.47114240
   0.16669682  0.83331413  0.47114347
   0.66666407  0.33332714  0.47114802
   0.66661831  0.83331413  0.47114347
  -0.00000148 -0.00000295  0.36056213
  -0.00000061  0.50000190  0.36056178
   0.49999925 -0.00000150  0.36056201
   0.50000251  0.50000190  0.36056178
   0.33352424  0.16669835  0.58284147
   0.33348539  0.66697179  0.58280413
   0.83317311  0.16669835  0.58284147
   0.83320679  0.66641457  0.58283827
  -0.00000755 -0.00001510  0.52872652
   0.00001396  0.50001060  0.52885352
   0.49999179 -0.00001643  0.52886276
   0.49999664  0.50001060  0.52885352
   0.33333239  0.16666401  0.41717162
   0.33333402  0.66666903  0.41717319
   0.83333062  0.16666401  0.41717162
   0.83333364  0.66666828  0.41717035
   0.16988366  0.33976632  0.63836731
   0.16725088  0.83273448  0.63945445
   0.66658259  0.33316419  0.63965373
   0.66548459  0.83273448  0.63945445
   0.05028459  0.10056818  0.72413590
   0.05758292  0.11516483  0.76435681
Direct configuration=     8
   0.16666483  0.33332866  0.38823085
   0.16665957  0.83333438  0.38823156
   0.66666899  0.33333698  0.38823041
   0.66667580  0.83333438  0.38823156
   0.00047359  0.00094718  0.61299306
   0.00041391  0.50031203  0.61148232
   0.49989617 -0.00020765  0.61157686
   0.49989812  0.50031203  0.61148232
   0.33311967  0.16656478  0.50002238
   0.33333399  0.66666897  0.49999573
   0.83344411  0.16656478  0.50002238
   0.83344258  0.66688616  0.50003113
   0.16669318  0.33338537  0.47113344
   0.16670043  0.83331139  0.47113439
   0.66666373  0.33332645  0.47114003
   0.66661196  0.83331139  0.47113439
  -0.00000142 -0.00000285  0.36054243
  -0.00000030  0.50000184  0.36054209
   0.49999907 -0.00000185  0.36054234
   0.50000214  0.50000184  0.36054209
   0.33348431  0.16667592  0.58286632
   0.33350871  0.66701841  0.58280879
   0.83319060  0.16667592  0.58286632
   0.83323042  0.66646184  0.58286041
  -0.00000529 -0.00001057  0.52874717
   0.00001767  0.50001034  0.52886067
   0.49999223 -0.00001555  0.52887088
   0.49999268  0.50001034  0.52886067
   0.33333109  0.16666351  0.41715550
   0.33333381  0.66666861  0.41715713
   0.83333143  0.16666351  0.41715550
   0.83333418  0.66666936  0.41715418
   0.16990576  0.33981052  0.63838344
   0.16724751  0.83275558  0.63947901
   0.66657666  0.33315233  0.63967672
   0.66550907  0.83275558  0.63947901
   0.05012440  0.10024780  0.72414212
   0.05764665  0.11529229  0.76435042
Direct configuration=     9
   0.16666360  0.33332621  0.38823862
   0.16665869  0.83333537  0.38823965
   0.66666866  0.33333631  0.38824155
   0.66667768  0.83333537  0.38823965
   0.00044412  0.00088825  0.61297639
   0.00029531  0.50039595  0.61144614
   0.49993913 -0.00012174  0.61155879
   0.50010064  0.50039595  0.61144614
   0.33304859  0.16652354  0.50001964
   0.33333916  0.66667932  0.49998221
   0.83347396  0.16652354  0.50001964
   0.83347980  0.66696060  0.50003421
   0.16670222  0.33340345  0.47110658
   0.16671125  0.83330318  0.47110716
   0.66666269  0.33332438  0.47111606
   0.66659293  0.83330318  0.47110716
  -0.00000127 -0.00000253  0.36048331
   0.00000061  0.50000164  0.36048304
   0.49999854 -0.00000291  0.36048331
   0.50000102  0.50000164  0.36048304
   0.33336452  0.16660860  0.58294084
   0.33357864  0.66715828  0.58282275
   0.83324309  0.16660860  0.58294084
   0.83330132  0.66660363  0.58292684
   0.00000150  0.00000301  0.52880912
   0.00002881  0.50000958  0.52888214
   0.49999355 -0.00001290  0.52889524
   0.49998077  0.50000958  0.52888214
   0.33332717  0.16666201  0.41710713
   0.33333317  0.66666734  0.41710893
   0.83333384  0.16666201  0.41710713
   0.83333579  0.66667258  0.41710568
   0.16997206  0.33994311  0.63843183
   0.16723740  0.83281889  0.63955270
   0.66655887  0.33311675  0.63974568
   0.66558249  0.83281889  0.63955270
   0.04964383  0.09928666  0.72416077
   0.05783783  0.11567466  0.76433124
Direct configuration=    10
   0.16666116  0.33332131  0.38825416
   0.16665692  0.83333736  0.38825583
   0.66666799  0.33333498  0.38826384
   0.66668143  0.83333736  0.38825583
   0.00038519  0.00077038  0.61294305
   0.00005811  0.50056379  0.61137378
   0.50002505  0.00005010  0.61152266
   0.50050568  0.50056379  0.61137378
   0.33290642  0.16644107  0.50001417
   0.33334951  0.66670003  0.49995516
   0.83353365  0.16644107  0.50001417
   0.83355424  0.66710948  0.50004036
   0.16672031  0.33343961  0.47105284
   0.16673289  0.83328676  0.47105271
   0.66666061  0.33332022  0.47106811
   0.66655487  0.83328676  0.47105271
  -0.00000095 -0.00000190  0.36036508
   0.00000245  0.50000124  0.36036493
   0.49999748 -0.00000503  0.36036526
   0.49999879  0.50000124  0.36036493
   0.33312492  0.16647398  0.58308989
   0.33371851  0.66743802  0.58285068
   0.83334805  0.16647398  0.58308989
   0.83344311  0.66688722  0.58305971
   0.00001508  0.00003017  0.52893301
   0.00005109  0.50000804  0.52892508
   0.49999619 -0.00000761  0.52894397
   0.49995695  0.50000804  0.52892508
   0.33331935  0.16665901  0.41701039
   0.33333190  0.66666480  0.41701255
   0.83333867  0.16665901  0.41701039
   0.83333902  0.66667903  0.41700867
   0.17010466  0.34020831  0.63852860
   0.16721718  0.83294552  0.63970007
   0.66652329  0.33304559  0.63988361
   0.66572934  0.83294552  0.63970007
   0.04868269  0.09736438  0.72419808
   0.05822020  0.11643939  0.76429290
Direct configuration=    11
   0.16665626  0.33331152  0.38828523
   0.16665339  0.83334133  0.38828819
   0.66666665  0.33333231  0.38830840
   0.66668894  0.83334133  0.38828819
   0.00026733  0.00053465  0.61287637
  -0.00041628  0.50089946  0.61122906
   0.50019688  0.00039376  0.61145040
   0.50131575  0.50089946  0.61122906
   0.33262208  0.16627613  0.50000322
   0.33337022  0.66674143  0.49990107
   0.83365305  0.16627613  0.50000322
   0.83370311  0.66740723  0.50005267
   0.16675647  0.33351193  0.47094537
   0.16677616  0.83325392  0.47094380
   0.66665646  0.33331191  0.47097221
   0.66647875  0.83325392  0.47094380
  -0.00000032 -0.00000065  0.36012861
   0.00000611  0.50000043  0.36012872
   0.49999536 -0.00000928  0.36012917
   0.49999432  0.50000043  0.36012872
   0.33264574  0.16620472  0.58338800
   0.33399825  0.66799751  0.58290654
   0.83355798  0.16620472  0.58338800
   0.83372669  0.66745439  0.58332543
   0.00004224  0.00008449  0.52918080
   0.00009565  0.50000497  0.52901096
   0.50000148  0.00000296  0.52904143
   0.49990933  0.50000497  0.52901096
   0.33330370  0.16665302  0.41681691
   0.33332936  0.66665972  0.41681978
   0.83334832  0.16665302  0.41681691
   0.83334547  0.66669193  0.41681466
   0.17036986  0.34073871  0.63872214
   0.16717673  0.83319877  0.63999483
   0.66645213  0.33290327  0.64015946
   0.66602304  0.83319877  0.63999483
   0.04676041  0.09351982  0.72427269
   0.05898493  0.11796886  0.76421620
Direct configuration=    12
   0.16665812  0.33331524  0.38820630
   0.16665079  0.83333640  0.38820796
   0.66666860  0.33333620  0.38824931
   0.66668660  0.83333640  0.38820796
   0.00031497  0.00062994  0.61296044
  -0.00032488  0.50101704  0.61130665
   0.50020925  0.00041849  0.61153661
   0.50134192  0.50101704  0.61130665
   0.33261539  0.16625574  0.50002397
   0.33339133  0.66678366  0.49991277
   0.83363935  0.16625574  0.50002397
   0.83371543  0.66743185  0.50004238
   0.16674320  0.33348540  0.47098319
   0.16674923  0.83326189  0.47098319
   0.66666385  0.33332670  0.47101913
   0.66651366  0.83326189  0.47098319
  -0.00000052 -0.00000105  0.36005680
   0.00001094  0.50000238  0.36005813
   0.49999249 -0.00001501  0.36005871
   0.49999144  0.50000238  0.36005813
   0.33253237  0.16614674  0.58346743
   0.33413786  0.66827673  0.58289281
   0.83361336  0.16614674  0.58346743
   0.83382693  0.66765486  0.58339123
   0.00003604  0.00007207  0.52917302
   0.00002559  0.49999336  0.52894710
   0.50005691  0.00011382  0.52897393
   0.49996777  0.49999336  0.52894710
   0.33327826  0.16663943  0.41675494
   0.33332963  0.66666025  0.41674779
   0.83336016  0.16663943  0.41675494
   0.83335826  0.66671752  0.41675606
   0.17040164  0.34080228  0.63881610
   0.16712068  0.83327244  0.64008403
   0.66646510  0.33292919  0.64022196
   0.66615276  0.83327244  0.64008403
   0.04587925  0.09175749  0.72424268
   0.05933828  0.11867556  0.76420800
Direct configuration=    13
   0.16666255  0.33332410  0.38801835
   0.16664461  0.83332465  0.38801692
   0.66667323  0.33334546  0.38810859
   0.66668104  0.83332465  0.38801692
   0.00042843  0.00085685  0.61316064
  -0.00010722  0.50129703  0.61149141
   0.50023869  0.00047739  0.61174191
   0.50140425  0.50129703  0.61149141
   0.33259944  0.16620717  0.50007338
   0.33344160  0.66688420  0.49994061
   0.83360673  0.16620717  0.50007338
   0.83374475  0.66749049  0.50001789
   0.16671161  0.33342222  0.47107324
   0.16668510  0.83328087  0.47107699
   0.66668145  0.33336191  0.47113084
   0.66659677  0.83328087  0.47107699
  -0.00000100 -0.00000200  0.35988580
   0.00002245  0.50000700  0.35989004
   0.49998567 -0.00002866  0.35989094
   0.49998456  0.50000700  0.35989004
   0.33226241  0.16600865  0.58365659
   0.33447032  0.66894164  0.58286010
   0.83374524  0.16600865  0.58365659
   0.83406563  0.66813227  0.58354791
   0.00002125  0.00004251  0.52915449
  -0.00014122  0.49996571  0.52879505
   0.50018890  0.00037780  0.52881319
   0.50010693  0.49996571  0.52879505
   0.33321768  0.16660706  0.41660735
   0.33333026  0.66666153  0.41657636
   0.83338837  0.16660706  0.41660735
   0.83338872  0.66677844  0.41661649
   0.17047732  0.34095365  0.63903984
   0.16698721  0.83344787  0.64029646
   0.66649596  0.33299092  0.64037078
   0.66646166  0.83344787  0.64029646
   0.04378090  0.08756080  0.72417119
   0.06017973  0.12035845  0.76418847
Direct configuration=    14
   0.16666443  0.33332787  0.38793836
   0.16664198  0.83331966  0.38793561
   0.66667520  0.33334940  0.38804869
   0.66667867  0.83331966  0.38793561
   0.00047671  0.00095342  0.61324584
  -0.00001458  0.50141619  0.61157004
   0.50025123  0.00050245  0.61182929
   0.50143078  0.50141619  0.61157004
   0.33259265  0.16618650  0.50009441
   0.33346300  0.66692700  0.49995247
   0.83359285  0.16618650  0.50009441
   0.83375722  0.66751545  0.50000746
   0.16669817  0.33339534  0.47111156
   0.16665780  0.83328895  0.47111691
   0.66668895  0.33337689  0.47117839
   0.66663215  0.83328895  0.47111691
  -0.00000120 -0.00000241  0.35981302
   0.00002734  0.50000897  0.35981850
   0.49998276 -0.00003447  0.35981954
   0.49998163  0.50000897  0.35981850
   0.33214752  0.16594989  0.58373710
   0.33461182  0.66922463  0.58284618
   0.83380137  0.16594989  0.58373710
   0.83416722  0.66833545  0.58361460
   0.00001496  0.00002993  0.52914660
  -0.00021222  0.49995394  0.52873033
   0.50024507  0.00049015  0.52874478
   0.50016616  0.49995394  0.52873033
   0.33319190  0.16659328  0.41654454
   0.33333054  0.66666207  0.41650340
   0.83340038  0.16659328  0.41654454
   0.83340168  0.66680437  0.41655710
   0.17050954  0.34101807  0.63913506
   0.16693041  0.83352253  0.64038687
   0.66650910  0.33301720  0.64043412
   0.66659312  0.83352253  0.64038687
   0.04288784  0.08577469  0.72414077
   0.06053784  0.12107469  0.76418016
Direct configuration=    15
   0.16666474  0.33332848  0.38792006
   0.16664190  0.83331898  0.38791682
   0.66667534  0.33334967  0.38803495
   0.66667808  0.83331898  0.38791682
   0.00048806  0.00097612  0.61326609
   0.00000888  0.50144241  0.61158854
   0.50025421  0.00050842  0.61184953
   0.50143353  0.50144241  0.61158854
   0.33259295  0.16618365  0.50009870
   0.33346762  0.66693624  0.49995424
   0.83358970  0.16618365  0.50009870
   0.83375905  0.66751909  0.50000463
   0.16669481  0.33338863  0.47112063
   0.16665146  0.83329136  0.47112621
   0.66669070  0.33338040  0.47118921
   0.66664090  0.83329136  0.47112621
  -0.00000136 -0.00000272  0.35979655
   0.00002819  0.50000947  0.35980243
   0.49998219 -0.00003563  0.35980350
   0.49998128  0.50000947  0.35980243
   0.33212609  0.16594007  0.58375490
   0.33464300  0.66928700  0.58284382
   0.83381299  0.16594007  0.58375490
   0.83418824  0.66837748  0.58362934
   0.00001370  0.00002740  0.52914375
  -0.00022911  0.49995104  0.52871628
   0.50025904  0.00051809  0.52872944
   0.50018015  0.49995104  0.52871628
   0.33318625  0.16659008  0.41653065
   0.33333075  0.66666250  0.41648715
   0.83340282  0.16659008  0.41653065
   0.83340461  0.66681022  0.41654386
   0.17051671  0.34103242  0.63915770
   0.16691901  0.83353666  0.64040706
   0.66651343  0.33302586  0.64044762
   0.66661865  0.83353666  0.64040706
   0.04269520  0.08538941  0.72415771
   0.06060823  0.12121545  0.76415306
Direct configuration=    16
   0.16666566  0.33333032  0.38786517
   0.16664166  0.83331697  0.38786042
   0.66667574  0.33335047  0.38799372
   0.66667632  0.83331697  0.38786042
   0.00052211  0.00104422  0.61332682
   0.00007925  0.50152106  0.61164402
   0.50026317  0.00052633  0.61191024
   0.50144181  0.50152106  0.61164402
   0.33259384  0.16617511  0.50011157
   0.33348149  0.66696398  0.49995957
   0.83358027  0.16617511  0.50011157
   0.83376451  0.66753003  0.49999612
   0.16668475  0.33336850  0.47114782
   0.16663244  0.83329859  0.47115412
   0.66669597  0.33339093  0.47122165
   0.66666715  0.83329859  0.47115412
  -0.00000183 -0.00000366  0.35974714
   0.00003072  0.50001095  0.35975421
   0.49998046 -0.00003908  0.35975536
   0.49998023  0.50001095  0.35975421
   0.33206179  0.16591064  0.58380833
   0.33473655  0.66947410  0.58283674
   0.83384785  0.16591064  0.58380833
   0.83425129  0.66850357  0.58367358
   0.00000991  0.00001983  0.52913521
  -0.00027980  0.49994233  0.52867412
   0.50030096  0.00060192  0.52868344
   0.50022213  0.49994233  0.52867412
   0.33316930  0.16658046  0.41648898
   0.33333140  0.66666379  0.41643842
   0.83341016  0.16658046  0.41648898
   0.83341339  0.66682778  0.41650415
   0.17053824  0.34107548  0.63922562
   0.16688481  0.83357904  0.64046765
   0.66652643  0.33305185  0.64048812
   0.66669522  0.83357904  0.64046765
   0.04211729  0.08423358  0.72420852
   0.06081938  0.12163775  0.76407176
Direct configuration=    17
   0.16666750  0.33333399  0.38775539
   0.16664116  0.83331295  0.38774763
   0.66667654  0.33335208  0.38791127
   0.66667279  0.83331295  0.38774763
   0.00059021  0.00118042  0.61344828
   0.00021999  0.50167836  0.61175497
   0.50028107  0.00056214  0.61203167
   0.50145837  0.50167836  0.61175497
   0.33259563  0.16615803  0.50013731
   0.33350923  0.66701947  0.49997024
   0.83356141  0.16615803  0.50013731
   0.83377545  0.66755189  0.49997912
   0.16666463  0.33332825  0.47120221
   0.16659439  0.83331305  0.47120993
   0.66670650  0.33341199  0.47128654
   0.66671966  0.83331305  0.47120993
  -0.00000277 -0.00000553  0.35964832
   0.00003579  0.50001392  0.35965777
   0.49997701 -0.00004599  0.35965910
   0.49997813  0.50001392  0.35965777
   0.33193319  0.16585176  0.58391517
   0.33492365  0.66984830  0.58282258
   0.83391757  0.16585176  0.58391517
   0.83437738  0.66875576  0.58376206
   0.00000234  0.00000468  0.52911811
  -0.00038116  0.49992491  0.52858979
   0.50038479  0.00076958  0.52859143
   0.50030607  0.49992491  0.52858979
   0.33313540  0.16656122  0.41640565
   0.33333269  0.66666637  0.41634097
   0.83342482  0.16656122  0.41640565
   0.83343095  0.66686290  0.41642472
   0.17058129  0.34116158  0.63936145
   0.16681642  0.83366380  0.64058882
   0.66655242  0.33310383  0.64056913
   0.66684837  0.83366380  0.64058882
   0.04096146  0.08192193  0.72431014
   0.06124167  0.12248234  0.76390916
Direct configuration=    18
   0.16667117  0.33334135  0.38753584
   0.16664018  0.83330491  0.38752205
   0.66667815  0.33335529  0.38774636
   0.66666573  0.83330491  0.38752205
   0.00072641  0.00145282  0.61369120
   0.00050148  0.50199295  0.61197689
   0.50031689  0.00063377  0.61227452
   0.50149148  0.50199295  0.61197689
   0.33259920  0.16612388  0.50018880
   0.33356472  0.66713043  0.49999156
   0.83352368  0.16612388  0.50018880
   0.83379731  0.66759563  0.49994510
   0.16662437  0.33324775  0.47131098
   0.16651830  0.83334197  0.47132156
   0.66672756  0.33345411  0.47141632
   0.66682467  0.83334197  0.47132156
  -0.00000464 -0.00000928  0.35945068
   0.00004593  0.50001986  0.35946490
   0.49997010 -0.00005981  0.35946656
   0.49997393  0.50001986  0.35946490
   0.33167600  0.16573401  0.58412886
   0.33529785  0.67059670  0.58279427
   0.83405702  0.16573401  0.58412886
   0.83462957  0.66926013  0.58393900
  -0.00001281 -0.00002562  0.52908393
  -0.00058389  0.49989007  0.52842113
   0.50055245  0.00110490  0.52840742
   0.50047396  0.49989007  0.52842113
   0.33306760  0.16652275  0.41623899
   0.33333527  0.66667154  0.41614605
   0.83345415  0.16652275  0.41623899
   0.83346607  0.66693313  0.41626587
   0.17066740  0.34133379  0.63963311
   0.16667964  0.83383331  0.64083117
   0.66660440  0.33320779  0.64073115
   0.66715467  0.83383331  0.64083117
   0.03864981  0.07729861  0.72451339
   0.06208627  0.12417153  0.76358396
Direct configuration=    19
   0.16667185  0.33334270  0.38749549
   0.16664000  0.83330343  0.38748060
   0.66667844  0.33335588  0.38771606
   0.66666443  0.83330343  0.38748060
   0.00075144  0.00150288  0.61373584
   0.00055321  0.50205077  0.61201767
   0.50032347  0.00064694  0.61231915
   0.50149756  0.50205077  0.61201767
   0.33259985  0.16611760  0.50019827
   0.33357491  0.66715082  0.49999548
   0.83351675  0.16611760  0.50019827
   0.83380133  0.66760367  0.49993885
   0.16661698  0.33323295  0.47133097
   0.16650432  0.83334728  0.47134208
   0.66673143  0.33346185  0.47144017
   0.66684397  0.83334728  0.47134208
  -0.00000498 -0.00000997  0.35941436
   0.00004779  0.50002095  0.35942946
   0.49996883 -0.00006235  0.35943118
   0.49997316  0.50002095  0.35942946
   0.33162873  0.16571237  0.58416813
   0.33536662  0.67073424  0.58278907
   0.83408265  0.16571237  0.58416813
   0.83467591  0.66935283  0.58397152
  -0.00001560 -0.00003119  0.52907765
  -0.00062115  0.49988367  0.52839014
   0.50058326  0.00116652  0.52837360
   0.50050481  0.49988367  0.52839014
   0.33305514  0.16651568  0.41620836
   0.33333574  0.66667248  0.41611023
   0.83345954  0.16651568  0.41620836
   0.83347252  0.66694604  0.41623668
   0.17068322  0.34136544  0.63968303
   0.16665450  0.83386447  0.64087570
   0.66661395  0.33322690  0.64076092
   0.66721097  0.83386447  0.64087570
   0.03822497  0.07644894  0.72455074
   0.06224148  0.12448197  0.76352420
Direct configuration=    20
   0.16666965  0.33333829  0.38752027
   0.16664533  0.83330992  0.38750370
   0.66667482  0.33334864  0.38773533
   0.66666559  0.83330992  0.38750370
   0.00073401  0.00146802  0.61371522
   0.00052372  0.50202463  0.61199239
   0.50033086  0.00066171  0.61229265
   0.50150092  0.50202463  0.61199239
   0.33260388  0.16613402  0.50018693
   0.33356710  0.66713520  0.49997998
   0.83352914  0.16613402  0.50018693
   0.83379594  0.66759287  0.49993890
   0.16662051  0.33324001  0.47131717
   0.16651436  0.83334884  0.47132637
   0.66672953  0.33345806  0.47142012
   0.66683548  0.83334884  0.47132637
  -0.00000601 -0.00001202  0.35942433
   0.00004355  0.50002070  0.35944045
   0.49997058 -0.00005885  0.35944200
   0.49997715  0.50002070  0.35944045
   0.33168896  0.16575443  0.58415410
   0.33532762  0.67065624  0.58280558
   0.83406447  0.16575443  0.58415410
   0.83463750  0.66927601  0.58396123
  -0.00001010 -0.00002021  0.52908208
  -0.00060229  0.49988609  0.52842118
   0.50057778  0.00115556  0.52840176
   0.50048838  0.49988609  0.52842118
   0.33306435  0.16651890  0.41622068
   0.33333708  0.66667516  0.41612525
   0.83345355  0.16651890  0.41622068
   0.83346868  0.66693837  0.41624655
   0.17068573  0.34137047  0.63967462
   0.16668741  0.83382411  0.64086038
   0.66662094  0.33324088  0.64074755
   0.66713770  0.83382411  0.64086038
   0.03840872  0.07681645  0.72458502
   0.06214942  0.12429785  0.76348798
Direct configuration=    21
   0.16666653  0.33333207  0.38755524
   0.16665286  0.83331908  0.38753631
   0.66666971  0.33333842  0.38776253
   0.66666722  0.83331908  0.38753631
   0.00070941  0.00141881  0.61368611
   0.00048209  0.50198775  0.61195672
   0.50034128  0.00068256  0.61225525
   0.50150565  0.50198775  0.61195672