CeO2                                    
           1
     7.707464    0.000000    0.000000
    -3.853732    6.674860    0.000000
     0.000000    0.000000   28.319031
   Ce   O    C    O 
  12  24   1   1
Direct configuration=     1
   0.16666700  0.33333300  0.38888900
   0.16666700  0.83333300  0.38888900
   0.66666700  0.33333300  0.38888900
   0.66666700  0.83333300  0.38888900
   0.00000000  0.00000000  0.61111100
   0.00000000  0.50000000  0.61111100
   0.50000000  0.00000000  0.61111100
   0.50000000  0.50000000  0.61111100
   0.33333300  0.16666700  0.50000000
   0.33333300  0.66666700  0.50000000
   0.83333300  0.16666700  0.50000000
   0.83333300  0.66666700  0.50000000
   0.16666700  0.33333300  0.47222200
   0.16666700  0.83333300  0.47222200
   0.66666700  0.33333300  0.47222200
   0.66666700  0.83333300  0.47222200
   0.00000000  0.00000000  0.36111100
   0.00000000  0.50000000  0.36111100
   0.50000000  0.00000000  0.36111100
   0.50000000  0.50000000  0.36111100
   0.33333300  0.16666700  0.58333300
   0.33333300  0.66666700  0.58333300
   0.83333300  0.16666700  0.58333300
   0.83333300  0.66666700  0.58333300
   0.00000000  0.00000000  0.52777800
   0.00000000  0.50000000  0.52777800
   0.50000000  0.00000000  0.52777800
   0.50000000  0.50000000  0.52777800
   0.33333300  0.16666700  0.41666700
   0.33333300  0.66666700  0.41666700
   0.83333300  0.16666700  0.41666700
   0.83333300  0.66666700  0.41666700
   0.16666700  0.33333300  0.63888900
   0.16666700  0.83333300  0.63888900
   0.66666700  0.33333300  0.63888900
   0.66666700  0.83333300  0.63888900
   0.44444400  0.27777800  0.72389500
   0.35890000  0.10668800  0.72389500
Direct configuration=     2
   0.16666689  0.33333482  0.38860572
   0.16666644  0.83333264  0.38860583
   0.66666776  0.33333537  0.38860556
   0.66666715  0.83333178  0.38860612
  -0.00029581 -0.00040617  0.61137062
   0.00036543  0.50045576  0.61138058
   0.49972166 -0.00078061  0.61132108
   0.50018984  0.50070334  0.61148086
   0.33332782  0.16666775  0.49998980
   0.33333022  0.66666168  0.50000718
   0.83333886  0.16666987  0.49999704
   0.83333404  0.66666845  0.50000519
   0.16666009  0.33331682  0.47179821
   0.16666833  0.83334759  0.47179828
   0.66666022  0.33332443  0.47179958
   0.66667870  0.83334537  0.47179769
  -0.00000024  0.00000237  0.36090584
  -0.00000111  0.49999780  0.36090565
   0.50000208  0.00000232  0.36090580
   0.49999930  0.49999946  0.36090599
   0.33341258  0.16672162  0.58314029
   0.33332343  0.66664566  0.58311059
   0.83330542  0.16671697  0.58312481
   0.83327400  0.66658810  0.58311114
   0.00001070  0.00001751  0.52820086
  -0.00001703  0.49998104  0.52820459
   0.50001382  0.00002704  0.52821133
   0.49999671  0.49997925  0.52819405
   0.33333424  0.16667003  0.41688981
   0.33333324  0.66666523  0.41688557
   0.83333467  0.16666855  0.41688889
   0.83333170  0.66666594  0.41688762
   0.16653107  0.33318019  0.63908783
   0.16632359  0.83289357  0.63887407
   0.66716469  0.33332256  0.63898068
   0.66673512  0.83353912  0.63902328
   0.44562233  0.28119906  0.72391257
   0.35766605  0.10367373  0.72426942
Direct configuration=     3
   0.16666697  0.33333355  0.38880320
   0.16666683  0.83333289  0.38880324
   0.66666723  0.33333372  0.38880315
   0.66666705  0.83333263  0.38880332
  -0.00008959 -0.00012301  0.61118963
   0.00011067  0.50013803  0.61119265
   0.49991570 -0.00023642  0.61117463
   0.50005750  0.50021302  0.61122302
   0.33333143  0.16666723  0.49999691
   0.33333216  0.66666539  0.50000217
   0.83333477  0.16666787  0.49999910
   0.83333332  0.66666744  0.50000157
   0.16666491  0.33332810  0.47209365
   0.16666740  0.83333742  0.47209367
   0.66666495  0.33333040  0.47209406
   0.66667054  0.83333675  0.47209349
  -0.00000007  0.00000072  0.36104887
  -0.00000034  0.49999933  0.36104881
   0.50000063  0.00000070  0.36104885
   0.49999979  0.49999984  0.36104891
   0.33335710  0.16668354  0.58327463
   0.33333010  0.66666054  0.58326564
   0.83332465  0.16668213  0.58326995
   0.83331513  0.66664311  0.58326581
   0.00000324  0.00000530  0.52790607
  -0.00000516  0.49999426  0.52790720
   0.50000418  0.00000819  0.52790924
   0.49999900  0.49999371  0.52790401
   0.33333338  0.16666792  0.41673448
   0.33333307  0.66666646  0.41673320
   0.83333351  0.16666747  0.41673420
   0.83333261  0.66666668  0.41673382
   0.16662583  0.33328672  0.63894922
   0.16656299  0.83319991  0.63888448
   0.66681773  0.33332984  0.63891677
   0.66668763  0.83339543  0.63892967
   0.44480088  0.27881412  0.72390032
   0.35852628  0.10577508  0.72400840
Direct configuration=     4
   0.16666687  0.33333420  0.38868076
   0.16666668  0.83333315  0.38868093
   0.66666748  0.33333461  0.38868070
   0.66666730  0.83333263  0.38868108
  -0.00020635 -0.00028558  0.61130024
   0.00026013  0.50032277  0.61130947
   0.49979769 -0.00056047  0.61126468
   0.50013526  0.50050301  0.61138203
   0.33333043  0.16667092  0.49999464
   0.33333171  0.66666084  0.50000321
   0.83333817  0.16666983  0.49999864
   0.83333114  0.66666676  0.50000337
   0.16666301  0.33332371  0.47190357
   0.16666905  0.83334246  0.47190380
   0.66666227  0.33332696  0.47190434
   0.66667341  0.83334110  0.47190354
   0.00000023  0.00000183  0.36095240
  -0.00000066  0.49999878  0.36095224
   0.50000124  0.00000184  0.36095238
   0.49999948  0.49999951  0.36095244
   0.33339298  0.16671082  0.58319644
   0.33333491  0.66665062  0.58317246
   0.83331141  0.16669604  0.58318294
   0.83328063  0.66661173  0.58317317
   0.00000615  0.00001026  0.52809617
  -0.00000763  0.49999051  0.52809764
   0.50000732  0.00001322  0.52810333
   0.49999738  0.49999000  0.52809186
   0.33333383  0.16666888  0.41682620
   0.33333307  0.66666609  0.41682382
   0.83333413  0.16666818  0.41682562
   0.83333248  0.66666653  0.41682484
   0.16657322  0.33322151  0.63904302
   0.16640486  0.83299707  0.63888045
   0.66703724  0.33333038  0.63896334
   0.66671454  0.83348181  0.63899459
   0.44451470  0.27872471  0.72390614
   0.35878822  0.10604879  0.72418351
Direct configuration=     5
   0.16666669  0.33333544  0.38844689
   0.16666641  0.83333364  0.38844732
   0.66666795  0.33333633  0.38844681
   0.66666780  0.83333261  0.38844759
  -0.00042935 -0.00059609  0.61151151
   0.00054559  0.50067560  0.61153259
   0.49957231 -0.00117939  0.61143668
   0.50028377  0.50105688  0.61168575
   0.33332853  0.16667798  0.49999031
   0.33333086  0.66665215  0.50000520
   0.83334466  0.16667357  0.49999776
   0.83332698  0.66666547  0.50000682
   0.16665940  0.33331531  0.47154053
   0.16667218  0.83335208  0.47154115
   0.66665716  0.33332038  0.47154197
   0.66667887  0.83334943  0.47154074
   0.00000081  0.00000395  0.36076814
  -0.00000127  0.49999774  0.36076780
   0.50000239  0.00000401  0.36076812
   0.49999889  0.49999889  0.36076819
   0.33346152  0.16676293  0.58304709
   0.33334409  0.66663167  0.58299450
   0.83328611  0.16672259  0.58301675
   0.83321474  0.66655181  0.58299624
   0.00001169  0.00001972  0.52845925
  -0.00001237  0.49998337  0.52846139
   0.50001332  0.00002282  0.52847404
   0.49999428  0.49998291  0.52845065
   0.33333470  0.16667072  0.41700137
   0.33333307  0.66666537  0.41699690
   0.83333532  0.16666953  0.41700022
   0.83333225  0.66666626  0.41699870
   0.16647275  0.33309695  0.63922219
   0.16610284  0.83260965  0.63887277
   0.66745648  0.33333142  0.63905228
   0.66676594  0.83364680  0.63911858
   0.44396813  0.27855395  0.72391726
   0.35928851  0.10657157  0.72451796
Direct configuration=     6
   0.16666661  0.33333596  0.38834808
   0.16666629  0.83333385  0.38834862
   0.66666815  0.33333705  0.38834799
   0.66666801  0.83333261  0.38834895
  -0.00052357 -0.00072727  0.61160077
   0.00066620  0.50082467  0.61162686
   0.49947708 -0.00144089  0.61150935
   0.50034652  0.50129088  0.61181407
   0.33332773  0.16668097  0.49998848
   0.33333050  0.66664848  0.50000603
   0.83334741  0.16667515  0.49999738
   0.83332523  0.66666492  0.50000827
   0.16665787  0.33331177  0.47138715
   0.16667351  0.83335615  0.47138793
   0.66665501  0.33331760  0.47138887
   0.66668118  0.83335295  0.47138746
   0.00000105  0.00000484  0.36069029
  -0.00000154  0.49999729  0.36068987
   0.50000288  0.00000492  0.36069027
   0.49999863  0.49999863  0.36069035
   0.33349047  0.16678494  0.58298400
   0.33334797  0.66662367  0.58291931
   0.83327543  0.16673381  0.58294654
   0.83318691  0.66652649  0.58292149
   0.00001404  0.00002371  0.52861264
  -0.00001437  0.49998035  0.52861507
   0.50001585  0.00002688  0.52863066
   0.49999298  0.49997991  0.52860224
   0.33333506  0.16667149  0.41707538
   0.33333307  0.66666506  0.41707003
   0.83333582  0.16667010  0.41707399
   0.83333215  0.66666614  0.41707216
   0.16643030  0.33304433  0.63929788
   0.16597524  0.83244596  0.63886952
   0.66763361  0.33333186  0.63908986
   0.66678765  0.83371650  0.63917096
   0.44373720  0.27848180  0.72392196
   0.35949988  0.10679245  0.72465926
Direct configuration=     7
   0.16666571  0.33333585  0.38834883
   0.16666522  0.83333309  0.38834920
   0.66666942  0.33333782  0.38834941
   0.66666888  0.83333307  0.38834983
  -0.00043380 -0.00058795  0.61157300
   0.00051627  0.50064442  0.61162526
   0.49956323 -0.00124535  0.61148266
   0.50031984  0.50111193  0.61182007
   0.33334057  0.16671044  0.50000683
   0.33332754  0.66662324  0.49998837
   0.83335814  0.16669136  0.50000786
   0.83330467  0.66664441  0.50000524
   0.16665960  0.33331940  0.47133347
   0.16667744  0.83335149  0.47133565
   0.66665661  0.33331685  0.47133498
   0.66667431  0.83335131  0.47133506
   0.00000138  0.00000480  0.36062092
  -0.00000090  0.49999801  0.36062037
   0.50000242  0.00000458  0.36062097
   0.49999858  0.49999891  0.36062084
   0.33349669  0.16679703  0.58302845
   0.33340208  0.66661879  0.58295376
   0.83326999  0.16667743  0.58297264
   0.83313116  0.66654790  0.58295445
   0.00000328  0.00000491  0.52866457
   0.00001547  0.50001003  0.52866268
   0.49999647 -0.00001798  0.52868065
   0.49999295  0.50001364  0.52865895
   0.33333425  0.16667063  0.41703589
   0.33333307  0.66666562  0.41703270
   0.83333600  0.16666973  0.41703473
   0.83333312  0.66666727  0.41703356
   0.16645086  0.33305029  0.63936847
   0.16590764  0.83234397  0.63890268
   0.66772139  0.33335385  0.63913566
   0.66676467  0.83370574  0.63923805
   0.44355814  0.27847027  0.72392248
   0.35966165  0.10693921  0.72478080
Direct configuration=     8
   0.16666427  0.33333568  0.38835004
   0.16666350  0.83333188  0.38835014
   0.66667146  0.33333906  0.38835169
   0.66667027  0.83333381  0.38835124
  -0.00028989 -0.00036459  0.61152847
   0.00027590  0.50035545  0.61162268
   0.49970134 -0.00093187  0.61143986
   0.50027706  0.50082502  0.61182969
   0.33336117  0.16675770  0.50003625
   0.33332281  0.66658276  0.49996006
   0.83337536  0.16671735  0.50002466
   0.83327170  0.66661153  0.50000037
   0.16666236  0.33333163  0.47124743
   0.16668374  0.83334401  0.47125184
   0.66665917  0.33331566  0.47124859
   0.66666331  0.83334868  0.47125105
   0.00000191  0.00000472  0.36050971
   0.00000012  0.49999917  0.36050895
   0.50000167  0.00000402  0.36050987
   0.49999848  0.49999938  0.36050940
   0.33350666  0.16681641  0.58309972
   0.33348883  0.66661095  0.58300899
   0.83326127  0.16658703  0.58301449
   0.83304180  0.66658221  0.58300729
  -0.00001395 -0.00002523  0.52874782
   0.00006330  0.50005762  0.52873901
   0.49996540 -0.00008991  0.52876079
   0.49999291  0.50006771  0.52874988
   0.33333294  0.16666925  0.41697258
   0.33333308  0.66666652  0.41697284
   0.83333630  0.16666914  0.41697179
   0.83333469  0.66666907  0.41697168
   0.16648381  0.33305984  0.63948162
   0.16579926  0.83218046  0.63895584
   0.66786212  0.33338911  0.63920907
   0.66672783  0.83368848  0.63934561
   0.44327106  0.27845178  0.72392332
   0.35992099  0.10717449  0.72497565
Direct configuration=     9
   0.16666138  0.33333533  0.38835244
   0.16666006  0.83332946  0.38835202
   0.66667552  0.33334154  0.38835624
   0.66667305  0.83333529  0.38835407
  -0.00000206  0.00008214  0.61143941
  -0.00020484  0.49977752  0.61161752
   0.49997756 -0.00030490  0.61135428
   0.50019151  0.50025122  0.61184894
   0.33340235  0.16685221  0.50009508
   0.33331334  0.66650180  0.49990344
   0.83340978  0.16676933  0.50005827
   0.83320577  0.66654576  0.49999063
   0.16666789  0.33335610  0.47107533
   0.16669635  0.83332906  0.47108422
   0.66666430  0.33331326  0.47107580
   0.66664129  0.83334342  0.47108304
   0.00000298  0.00000458  0.36028729
   0.00000216  0.50000148  0.36028611
   0.50000018  0.00000291  0.36028767
   0.49999829  0.50000030  0.36028651
   0.33352660  0.16685516  0.58324226
   0.33366232  0.66659529  0.58311945
   0.83324384  0.16640623  0.58309820
   0.83286307  0.66665084  0.58311297
  -0.00004843 -0.00008552  0.52891433
   0.00015897  0.50015279  0.52889168
   0.49990327 -0.00023376  0.52892106
   0.49999283  0.50017584  0.52893174
   0.33333032  0.16666649  0.41684596
   0.33333308  0.66666832  0.41685311
   0.83333689  0.16666796  0.41684590
   0.83333783  0.66667269  0.41684793
   0.16654973  0.33307895  0.63970794
   0.16558251  0.83185344  0.63906216
   0.66814358  0.33345963  0.63935590
   0.66665415  0.83365397  0.63956073
   0.44269692  0.27841481  0.72392500
   0.36043966  0.10764505  0.72536536
Direct configuration=    10
   0.16666230  0.33333544  0.38835167
   0.16666116  0.83333024  0.38835142
   0.66667422  0.33334075  0.38835478
   0.66667216  0.83333482  0.38835316
  -0.00009421 -0.00006089  0.61146792
  -0.00005092  0.49996256  0.61161917
   0.49988912 -0.00050564  0.61138168
   0.50021890  0.50043494  0.61184278
   0.33338917  0.16682195  0.50007624
   0.33331637  0.66652772  0.49992157
   0.83339876  0.16675269  0.50004751
   0.83322688  0.66656682  0.49999375
   0.16666612  0.33334827  0.47113043
   0.16669232  0.83333385  0.47113789
   0.66666266  0.33331403  0.47113112
   0.66664834  0.83334510  0.47113683
   0.00000264  0.00000463  0.36035850
   0.00000151  0.50000074  0.36035746
   0.50000065  0.00000327  0.36035881
   0.49999835  0.50000000  0.36035787
   0.33352022  0.16684275  0.58319662
   0.33360677  0.66660030  0.58308408
   0.83324942  0.16646412  0.58307140
   0.83292029  0.66662887  0.58307914
  -0.00003739 -0.00006622  0.52886102
   0.00012834  0.50012232  0.52884280
   0.49992316 -0.00018770  0.52886975
   0.49999285  0.50014122  0.52887351
   0.33333116  0.16666737  0.41688651
   0.33333308  0.66666775  0.41689145
   0.83333670  0.16666834  0.41688621
   0.83333683  0.66667153  0.41688755
   0.16652862  0.33307283  0.63963548
   0.16565191  0.83195814  0.63902812
   0.66805346  0.33343705  0.63930889
   0.66667774  0.83366502  0.63949186
   0.44288074  0.27842665  0.72392446
   0.36027360  0.10749439  0.72524059
Direct configuration=    11
   0.16666023  0.33332992  0.38833082
   0.16666148  0.83333493  0.38833176
   0.66667210  0.33333787  0.38833490
   0.66667600  0.83333874  0.38833280
  -0.00005438  0.00000688  0.61146935
  -0.00012839  0.49986165  0.61163374
   0.49993859 -0.00041621  0.61138089
   0.50020877  0.50034793  0.61186583
   0.33340118  0.16684582  0.50008458
   0.33331361  0.66650740  0.49991320
   0.83340665  0.16676598  0.50004974
   0.83320973  0.66654938  0.49999313
   0.16666599  0.33334717  0.47110605
   0.16669654  0.83333706  0.47111374
   0.66665973  0.33330928  0.47110779
   0.66664736  0.83334802  0.47111208
   0.00000219  0.00000408  0.36030032
   0.00000280  0.50000189  0.36029941
   0.50000008  0.00000176  0.36030081
   0.49999834  0.50000139  0.36029984
   0.33353459  0.16686322  0.58323488
   0.33365071  0.66658448  0.58311387
   0.83325026  0.16642208  0.58309205
   0.83286231  0.66663603  0.58310671
  -0.00003375 -0.00006870  0.52888336
   0.00014112  0.50013396  0.52886313
   0.49991174 -0.00020664  0.52889048
   0.49998726  0.50014872  0.52890077
   0.33333093  0.16666851  0.41685262
   0.33333292  0.66666655  0.41685605
   0.83333767  0.16666896  0.41685169
   0.83333636  0.66667134  0.41685242
   0.16654037  0.33306563  0.63969437
   0.16560021  0.83188519  0.63905504
   0.66812240  0.33344416  0.63934832
   0.66666360  0.83366282  0.63954741
   0.44288787  0.27879742  0.72392405
   0.36024885  0.10726132  0.72536202
Direct configuration=    12
   0.16665942  0.33332777  0.38832266
   0.16666160  0.83333677  0.38832408
   0.66667127  0.33333674  0.38832712
   0.66667750  0.83334027  0.38832483
  -0.00003881  0.00003338  0.61146990
  -0.00015868  0.49982220  0.61163944
   0.49995793 -0.00038125  0.61138058
   0.50020480  0.50031391  0.61187484
   0.33340588  0.16685515  0.50008784
   0.33331253  0.66649945  0.49990992
   0.83340973  0.16677118  0.50005062
   0.83320302  0.66654256  0.49999289
   0.16666595  0.33334674  0.47109652
   0.16669819  0.83333832  0.47110430
   0.66665858  0.33330742  0.47109867
   0.66664698  0.83334916  0.47110240
   0.00000202  0.00000387  0.36027757
   0.00000330  0.50000233  0.36027672
   0.49999985  0.00000117  0.36027813
   0.49999833  0.50000193  0.36027715
   0.33354020  0.16687122  0.58324983
   0.33366789  0.66657829  0.58312552
   0.83325059  0.16640564  0.58310012
   0.83283964  0.66663884  0.58311749
  -0.00003233 -0.00006968  0.52889210
   0.00014612  0.50013852  0.52887108
   0.49990727 -0.00021405  0.52889858
   0.49998508  0.50015165  0.52891142
   0.33333084  0.16666895  0.41683938
   0.33333286  0.66666609  0.41684221
   0.83333805  0.16666920  0.41683819
   0.83333618  0.66667127  0.41683868
   0.16654496  0.33306282  0.63971739
   0.16557999  0.83185667  0.63906557
   0.66814935  0.33344694  0.63936373
   0.66665808  0.83366196  0.63956913
   0.44289065  0.27894238  0.72392390
   0.36023917  0.10717020  0.72540949
Direct configuration=    13
   0.16665733  0.33331972  0.38829058
   0.16666301  0.83334383  0.38829417
   0.66666711  0.33333169  0.38829584
   0.66668222  0.83334507  0.38829354
  -0.00006202  0.00000388  0.61149817
  -0.00013321  0.49984071  0.61166312
   0.49994944 -0.00043349  0.61140437
   0.50021430  0.50035153  0.61190479
   0.33341102  0.16686249  0.50008342
   0.33331171  0.66649260  0.49991297
   0.83341164  0.16677467  0.50004392
   0.83319669  0.66653628  0.49999425
   0.16666412  0.33333826  0.47110281
   0.16670103  0.83334648  0.47110980
   0.66665302  0.33330079  0.47110670
   0.66665137  0.83335448  0.47110716
   0.00000123  0.00000307  0.36024581
   0.00000437  0.50000271  0.36024524
   0.49999963 -0.00000064  0.36024661
   0.49999829  0.50000302  0.36024567
   0.33355775  0.16689238  0.58326999
   0.33368973  0.66655760  0.58314087
   0.83325607  0.16638826  0.58310866
   0.83279721  0.66663062  0.58313078
  -0.00001694 -0.00005769  0.52888327
   0.00014024  0.50013083  0.52886297
   0.49990601 -0.00020565  0.52888920
   0.49997608  0.50013377  0.52890597
   0.33333123  0.16667113  0.41682123
   0.33333264  0.66666339  0.41682017
   0.83333938  0.16667012  0.41681892
   0.83333454  0.66666964  0.41681804
   0.16654534  0.33304530  0.63974941
   0.16555566  0.83182764  0.63907804
   0.66818247  0.33343949  0.63938677
   0.66665613  0.83366844  0.63959792
   0.44277658  0.27897293  0.72392511
   0.36034159  0.10725063  0.72549373
Direct configuration=    14
   0.16665435  0.33330821  0.38824473
   0.16666501  0.83335393  0.38825142
   0.66666117  0.33332448  0.38825112
   0.66668897  0.83335192  0.38824881
  -0.00009519 -0.00003828  0.61153858
  -0.00009681  0.49986716  0.61169698
   0.49993731 -0.00050814  0.61143836
   0.50022787  0.50040530  0.61194759
   0.33341838  0.16687297  0.50007709
   0.33331054  0.66648280  0.49991732
   0.83341437  0.16677965  0.50003436
   0.83318764  0.66652731  0.49999620
   0.16666150  0.33332614  0.47111180
   0.16670508  0.83335814  0.47111766
   0.66664508  0.33329131  0.47111818
   0.66665764  0.83336209  0.47111397
   0.00000011  0.00000192  0.36020042
   0.00000589  0.50000326  0.36020025
   0.49999930 -0.00000322  0.36020155
   0.49999823  0.50000458  0.36020068
   0.33358282  0.16692263  0.58329879
   0.33372095  0.66652804  0.58316281
   0.83326391  0.16636340  0.58312086
   0.83273657  0.66661888  0.58314978
   0.00000505 -0.00004056  0.52887065
   0.00013183  0.50011985  0.52885138
   0.49990422 -0.00019364  0.52887579
   0.49996321  0.50010822  0.52889819
   0.33333178  0.16667425  0.41679531
   0.33333232  0.66665953  0.41678865
   0.83334129  0.16667144  0.41679136
   0.83333220  0.66666732  0.41678853
   0.16654587  0.33302027  0.63979517
   0.16552087  0.83178615  0.63909588
   0.66822980  0.33342883  0.63941970
   0.66665334  0.83367770  0.63963907
   0.44261355  0.27901659  0.72392686
   0.36048796  0.10736559  0.72561414
Direct configuration=    15
   0.16664838  0.33328520  0.38815302
   0.16666902  0.83337412  0.38816592
   0.66664928  0.33331004  0.38816169
   0.66670247  0.83336563  0.38815936
  -0.00016154 -0.00012260  0.61161938
  -0.00002402  0.49992006  0.61176468
   0.49991304 -0.00065745  0.61150636
   0.50025501  0.50051284  0.61203320
   0.33343310  0.16689393  0.50006445
   0.33330819  0.66646319  0.49992602
   0.83341982  0.16678961  0.50001522
   0.83316953  0.66650935  0.50000009
   0.16665627  0.33330191  0.47112977
   0.16671320  0.83338145  0.47113338
   0.66662919  0.33327235  0.47114115
   0.66667020  0.83337729  0.47112758
  -0.00000213 -0.00000038  0.36010963
   0.00000893  0.50000434  0.36011028
   0.49999865 -0.00000839  0.36011145
   0.49999812  0.50000771  0.36011071
   0.33363297  0.16698312  0.58335640
   0.33378339  0.66646891  0.58320670
   0.83327958  0.16631369  0.58314525
   0.83261528  0.66659541  0.58318777
   0.00004903 -0.00000630  0.52884542
   0.00011502  0.50009789  0.52882821
   0.49990063 -0.00016963  0.52884898
   0.49993748  0.50005713  0.52888262
   0.33333288  0.16668048  0.41674345
   0.33333169  0.66665181  0.41672563
   0.83334511  0.16667407  0.41673626
   0.83332751  0.66666267  0.41672951
   0.16654694  0.33297020  0.63988669
   0.16545130  0.83170317  0.63913155
   0.66832448  0.33340752  0.63948557
   0.66664777  0.83369621  0.63972138
   0.44228748  0.27910392  0.72393034
   0.36078072  0.10759551  0.72585496
Direct configuration=    16
   0.16663645  0.33323917  0.38796962
   0.16667705  0.83341451  0.38799492
   0.66662551  0.33328116  0.38798283
   0.66672946  0.83339305  0.38798045
  -0.00029423 -0.00029123  0.61178100
   0.00012158  0.50002587  0.61190009
   0.49986451 -0.00095607  0.61164235
   0.50030930  0.50072791  0.61220442
   0.33346253  0.16693586  0.50003915
   0.33330349  0.66642399  0.49994341
   0.83343073  0.16680954  0.49997696
   0.83313333  0.66647344  0.50000787
   0.16664581  0.33325343  0.47116573
   0.16672943  0.83342808  0.47116482
   0.66659742  0.33323444  0.47118707
   0.66669531  0.83340770  0.47115481
  -0.00000662 -0.00000499  0.35992806
   0.00001501  0.50000652  0.35993033
   0.49999734 -0.00001872  0.35993123
   0.49999788  0.50001396  0.35993075
   0.33373327  0.16710411  0.58347161
   0.33390827  0.66635066  0.58329447
   0.83331093  0.16621428  0.58319404
   0.83237271  0.66654845  0.58326376
   0.00013700  0.00006223  0.52879494
   0.00008140  0.50005397  0.52878185
   0.49989345 -0.00012161  0.52879535
   0.49988602  0.49995493  0.52885147
   0.33333508  0.16669295  0.41663973
   0.33333042  0.66663638  0.41659957
   0.83335274  0.16667932  0.41662605
   0.83331814  0.66665338  0.41661146
   0.16654909  0.33287007  0.64006974
   0.16531216  0.83153720  0.63920289
   0.66851383  0.33336490  0.63961729
   0.66663663  0.83373324  0.63988599
   0.44163534  0.27927857  0.72393731
   0.36136624  0.10805535  0.72633658
Direct configuration=    17
   0.16661259  0.33314712  0.38760280
   0.16669310  0.83349528  0.38765293
   0.66657796  0.33322342  0.38762510
   0.66678344  0.83344790  0.38762262
  -0.00055962 -0.00062851  0.61210423
   0.00041277  0.50023748  0.61217090
   0.49976746 -0.00155331  0.61191433
   0.50041787  0.50115805  0.61254686
   0.33352139  0.16701971  0.49998856
   0.33329409  0.66634557  0.49997821
   0.83345255  0.16684940  0.49990043
   0.83306091  0.66640161  0.50002344
   0.16662489  0.33315648  0.47123765
   0.16676189  0.83352135  0.47122771
   0.66653387  0.33315861  0.47127892
   0.66674552  0.83346853  0.47120926
  -0.00001559 -0.00001419  0.35956493
   0.00002717  0.50001086  0.35957042
   0.49999473 -0.00003938  0.35957079
   0.49999742  0.50002645  0.35957084
   0.33393386  0.16734609  0.58370205
   0.33415804  0.66611414  0.58347001
   0.83337363  0.16601545  0.58329162
   0.83188755  0.66645453  0.58341574
   0.00031293  0.00019928  0.52869400
   0.00001416  0.49996612  0.52868915
   0.49987910 -0.00002556  0.52868810
   0.49978310  0.49975053  0.52878918
   0.33333949  0.16671788  0.41643230
   0.33332788  0.66660551  0.41634747
   0.83336800  0.16668984  0.41640563
   0.83329940  0.66663480  0.41637538
   0.16655338  0.33266981  0.64043582
   0.16503389  0.83120527  0.63934557
   0.66889254  0.33327965  0.63988074
   0.66661435  0.83380729  0.64021521
   0.44033106  0.27962788  0.72395125
   0.36253726  0.10897504  0.72729984
Direct configuration=    18
   0.16660071  0.33310129  0.38742019
   0.16670108  0.83353549  0.38748267
   0.66655429  0.33319467  0.38744701
   0.66681032  0.83347520  0.38744449
  -0.00069173 -0.00079641  0.61226514
   0.00055773  0.50034282  0.61230572
   0.49971914 -0.00185063  0.61204973
   0.50047192  0.50137219  0.61271734
   0.33355069  0.16706146  0.49996338
   0.33328941  0.66630654  0.49999554
   0.83346341  0.16686924  0.49986233
   0.83302487  0.66636586  0.50003119
   0.16661447  0.33310822  0.47127345
   0.16677805  0.83356778  0.47125902
   0.66650223  0.33312086  0.47132465
   0.66677052  0.83349881  0.47123637
  -0.00002006 -0.00001877  0.35938415
   0.00003322  0.50001303  0.35939125
   0.49999343 -0.00004967  0.35939136
   0.49999719  0.50003267  0.35939167
   0.33403372  0.16746655  0.58381676
   0.33428237  0.66599640  0.58355740
   0.83340484  0.16591647  0.58334019
   0.83164603  0.66640778  0.58349140
   0.00040051  0.00026751  0.52864375
  -0.00001932  0.49992238  0.52864300
   0.49987195  0.00002225  0.52863471
   0.49973186  0.49964878  0.52875817
   0.33334168  0.16673029  0.41632903
   0.33332662  0.66659014  0.41622196
   0.83337560  0.16669507  0.41629590
   0.83329007  0.66662555  0.41625785
   0.16655551  0.33257011  0.64061807
   0.16489535  0.83104003  0.63941661
   0.66908107  0.33323721  0.64001190
   0.66660326  0.83384416  0.64037910
   0.43968175  0.27980178  0.72395819
   0.36312023  0.10943288  0.72777938
Direct configuration=    19
   0.16661278  0.33312197  0.38736243
   0.16669774  0.83351762  0.38743357
   0.66656021  0.33320824  0.38739026
   0.66679553  0.83345581  0.38739025
  -0.00068320 -0.00078112  0.61229858
   0.00052597  0.50027043  0.61234220
   0.49975842 -0.00183461  0.61207830
   0.50046180  0.50131463  0.61277630
   0.33353883  0.16705086  0.49996554
   0.33330059  0.66630787  0.49998474
   0.83346560  0.16684504  0.49985084
   0.83302274  0.66638623  0.50002683
   0.16661707  0.33311153  0.47126492
   0.16677678  0.83356249  0.47125248
   0.66650252  0.33312240  0.47131926
   0.66676848  0.83349276  0.47122964
  -0.00001756 -0.00001424  0.35928924
   0.00002699  0.50000510  0.35929833
   0.49999795 -0.00004167  0.35929793
   0.49999636  0.50002494  0.35929764
   0.33406667  0.16748942  0.58388520
   0.33432784  0.66595490  0.58361130
   0.83341859  0.16586137  0.58338011
   0.83156175  0.66640038  0.58354105
   0.00043518  0.00027047  0.52863999
  -0.00001163  0.49993513  0.52864363
   0.49984982  0.00000399  0.52863248
   0.49971155  0.49962596  0.52875318
   0.33334740  0.16674005  0.41625951
   0.33332564  0.66658078  0.41615216
   0.83337821  0.16670067  0.41622452
   0.83328227  0.66661569  0.41618899
   0.16652660  0.33253240  0.64070829
   0.16485088  0.83096276  0.63946740
   0.66918337  0.33320661  0.64008238
   0.66659497  0.83386805  0.64047051
   0.43941995  0.28010162  0.72395680
   0.36334932  0.10948944  0.72804325
Direct configuration=    20
   0.16662480  0.33314257  0.38730489
   0.16669441  0.83349982  0.38738467
   0.66656612  0.33322175  0.38733374
   0.66678081  0.83343648  0.38733623
  -0.00067471 -0.00076588  0.61233189
   0.00049434  0.50019832  0.61237854
   0.49979755 -0.00181864  0.61210675
   0.50045172  0.50125730  0.61283503
   0.33352701  0.16704031  0.49996769
   0.33331172  0.66630919  0.49997398
   0.83346779  0.16682094  0.49983939
   0.83302063  0.66640652  0.50002249
   0.16661965  0.33311483  0.47125643
   0.16677552  0.83355722  0.47124596
   0.66650282  0.33312394  0.47131388
   0.66676646  0.83348673  0.47122293
  -0.00001506 -0.00000972  0.35919470
   0.00002079  0.49999720  0.35920576
   0.50000245 -0.00003371  0.35920487
   0.49999555  0.50001723  0.35920398
   0.33409950  0.16751220  0.58395337
   0.33437312  0.66591356  0.58366499
   0.83343229  0.16580648  0.58341987
   0.83147779  0.66639302  0.58359050
   0.00046972  0.00027342  0.52863626
  -0.00000397  0.49994782  0.52864425
   0.49982777 -0.00001419  0.52863025
   0.49969132  0.49960323  0.52874820
   0.33335309  0.16674976  0.41619026
   0.33332467  0.66657146  0.41608263
   0.83338081  0.16670626  0.41615341
   0.83327449  0.66660587  0.41612039
   0.16649780  0.33249484  0.64079815
   0.16480658  0.83088579  0.63951800
   0.66928528  0.33317612  0.64015258
   0.66658670  0.83389184  0.64056157
   0.43915918  0.28040030  0.72395541
   0.36357752  0.10954578  0.72830610
Direct configuration=    21
   0.16664884  0.33318378  0.38718981
   0.16668775  0.83346423  0.38728685
   0.66657792  0.33324878  0.38722069
   0.66675135  0.83339784  0.38722818
  -0.00065772 -0.00073541  0.61239850
   0.00043107  0.50005410  0.61245122
   0.49987581 -0.00178672  0.61216365
   0.50043155  0.50114264  0.61295249