CeO2                                    
           1
     7.707464    0.000000    0.000000
    -3.853732    6.674860    0.000000
     0.000000    0.000000   28.319031
   Ce   O    C    O 
  12  24   1   1
Direct configuration=     1
   0.16666700  0.33333300  0.38888900
   0.16666700  0.83333300  0.38888900
   0.66666700  0.33333300  0.38888900
   0.66666700  0.83333300  0.38888900
   0.00000000  0.00000000  0.61111100
   0.00000000  0.50000000  0.61111100
   0.50000000  0.00000000  0.61111100
   0.50000000  0.50000000  0.61111100
   0.33333300  0.16666700  0.50000000
   0.33333300  0.66666700  0.50000000
   0.83333300  0.16666700  0.50000000
   0.83333300  0.66666700  0.50000000
   0.16666700  0.33333300  0.47222200
   0.16666700  0.83333300  0.47222200
   0.66666700  0.33333300  0.47222200
   0.66666700  0.83333300  0.47222200
   0.00000000  0.00000000  0.36111100
   0.00000000  0.50000000  0.36111100
   0.50000000  0.00000000  0.36111100
   0.50000000  0.50000000  0.36111100
   0.33333300  0.16666700  0.58333300
   0.33333300  0.66666700  0.58333300
   0.83333300  0.16666700  0.58333300
   0.83333300  0.66666700  0.58333300
   0.00000000  0.00000000  0.52777800
   0.00000000  0.50000000  0.52777800
   0.50000000  0.00000000  0.52777800
   0.50000000  0.50000000  0.52777800
   0.33333300  0.16666700  0.41666700
   0.33333300  0.66666700  0.41666700
   0.83333300  0.16666700  0.41666700
   0.83333300  0.66666700  0.41666700
   0.16666700  0.33333300  0.63888900
   0.16666700  0.83333300  0.63888900
   0.66666700  0.33333300  0.63888900
   0.66666700  0.83333300  0.63888900
   0.33333300  0.00000000  0.72389500
   0.41887800  0.17109000  0.72389500
Direct configuration=     2
   0.16666625  0.33333386  0.38860340
   0.16666392  0.83333106  0.38860244
   0.66666887  0.33333514  0.38860307
   0.66666897  0.83333260  0.38860305
  -0.00045618  0.00015853  0.61125438
  -0.00038506  0.49951377  0.61141538
   0.50077338  0.00017408  0.61118082
   0.50011141  0.50000479  0.61146305
   0.33334038  0.16668376  0.49998899
   0.33332306  0.66664883  0.49999392
   0.83334193  0.16668594  0.50000291
   0.83332618  0.66664964  0.49999723
   0.16666658  0.33332827  0.47180223
   0.16667356  0.83334146  0.47180385
   0.66666098  0.33332533  0.47180186
   0.66666715  0.83333751  0.47180215
  -0.00000257  0.00000078  0.36090938
  -0.00000289  0.49999644  0.36090939
   0.50000413  0.00000229  0.36090955
   0.50000181  0.50000125  0.36090962
   0.33328129  0.16653519  0.58313440
   0.33332244  0.66677474  0.58311952
   0.83331868  0.16660266  0.58310858
   0.83345653  0.66678934  0.58311874
   0.00001074  0.00000244  0.52820887
   0.00000928  0.50000768  0.52819786
   0.49999160 -0.00000502  0.52821844
   0.49999374  0.49999508  0.52819184
   0.33333523  0.16666979  0.41689384
   0.33333576  0.66666622  0.41689300
   0.83333286  0.16666641  0.41689273
   0.83333029  0.66666569  0.41689232
   0.16652339  0.33313795  0.63905656
   0.16616964  0.83338502  0.63883455
   0.66743343  0.33371923  0.63878507
   0.66676098  0.83349581  0.63906866
   0.33206972 -0.00391574  0.72462015
   0.41982352  0.17471219  0.72399818
Direct configuration=     3
   0.16666679  0.33333324  0.38881037
   0.16666615  0.83333247  0.38881010
   0.66666752  0.33333359  0.38881028
   0.66666754  0.83333289  0.38881027
  -0.00012560  0.00004365  0.61115048
  -0.00010601  0.49986613  0.61119480
   0.50021293  0.00004793  0.61113022
   0.50003067  0.50000132  0.61120793
   0.33333503  0.16667161  0.49999697
   0.33333026  0.66666200  0.49999833
   0.83333546  0.16667221  0.50000080
   0.83333112  0.66666222  0.49999924
   0.16666689  0.33333170  0.47210643
   0.16666881  0.83333533  0.47210688
   0.66666534  0.33333089  0.47210633
   0.66666704  0.83333424  0.47210641
  -0.00000071  0.00000021  0.36105549
  -0.00000080  0.49999902  0.36105549
   0.50000114  0.00000063  0.36105554
   0.50000050  0.50000034  0.36105556
   0.33331876  0.16663071  0.58327832
   0.33333009  0.66669666  0.58327422
   0.83332906  0.16664929  0.58327121
   0.83336701  0.66670068  0.58327401
   0.00000296  0.00000067  0.52789663
   0.00000256  0.50000211  0.52789360
   0.49999769 -0.00000138  0.52789926
   0.49999828  0.49999864  0.52789194
   0.33333361  0.16666777  0.41672945
   0.33333376  0.66666679  0.41672922
   0.83333296  0.16666684  0.41672915
   0.83333225  0.66666664  0.41672904
   0.16662746  0.33327930  0.63893513
   0.16653007  0.83334732  0.63887401
   0.66687801  0.33343934  0.63886039
   0.66669287  0.83337782  0.63893846
   0.33298519 -0.00107809  0.72409465
   0.41913832  0.17208727  0.72392341
Direct configuration=     4
   0.16666651  0.33333351  0.38867177
   0.16666489  0.83333131  0.38867140
   0.66666803  0.33333424  0.38867164
   0.66666788  0.83333227  0.38867178
  -0.00033851  0.00012226  0.61121997
  -0.00028713  0.49963825  0.61134242
   0.50058208  0.00012952  0.61116175
   0.50007935  0.49999646  0.61137839
   0.33333939  0.16668483  0.49999325
   0.33332350  0.66664689  0.49999666
   0.83334390  0.16668504  0.49999961
   0.83332474  0.66665052  0.49999949
   0.16666584  0.33332841  0.47189514
   0.16667306  0.83334032  0.47189622
   0.66666172  0.33332517  0.47189507
   0.66666715  0.83333781  0.47189557
  -0.00000121  0.00000050  0.36094912
  -0.00000159  0.49999776  0.36094913
   0.50000222  0.00000124  0.36094926
   0.50000074  0.50000026  0.36094929
   0.33330078  0.16657743  0.58318573
   0.33333399  0.66674610  0.58317508
   0.83332162  0.16661149  0.58316367
   0.83341424  0.66676058  0.58317283
   0.00000542  0.00000381  0.52811209
   0.00000481  0.50000121  0.52810433
   0.49999872 -0.00000236  0.52811949
   0.49999529  0.49999643  0.52810189
   0.33333432  0.16666857  0.41683413
   0.33333435  0.66666601  0.41683349
   0.83333309  0.16666672  0.41683353
   0.83333136  0.66666581  0.41683301
   0.16655820  0.33318428  0.63902233
   0.16628791  0.83338209  0.63885493
   0.66727260  0.33364163  0.63880898
   0.66673584  0.83345518  0.63903282
   0.33338361 -0.00098096  0.72446732
   0.41856230  0.17182942  0.72397740
Direct configuration=     5
   0.16666594  0.33333403  0.38840138
   0.16666244  0.83332906  0.38840081
   0.66666903  0.33333552  0.38840116
   0.66666853  0.83333106  0.38840158
  -0.00075388  0.00027563  0.61135554
  -0.00064048  0.49919367  0.61163041
   0.50130227  0.00028869  0.61122325
   0.50017431  0.49998697  0.61171095
   0.33334788  0.16671061  0.49998599
   0.33331031  0.66661742  0.49999342
   0.83336037  0.16671005  0.49999728
   0.83331229  0.66662769  0.49999998
   0.16666379  0.33332200  0.47148294
   0.16668137  0.83335006  0.47148525
   0.66665466  0.33331400  0.47148293
   0.66666735  0.83334477  0.47148426
  -0.00000218  0.00000105  0.36074162
  -0.00000313  0.49999530  0.36074162
   0.50000432  0.00000242  0.36074192
   0.50000122  0.50000009  0.36074197
   0.33326569  0.16647348  0.58300510
   0.33334158  0.66684254  0.58298166
   0.83330710  0.16653776  0.58295385
   0.83350638  0.66687743  0.58297542
   0.00001021  0.00000994  0.52853243
   0.00000920  0.49999944  0.52851546
   0.50000074 -0.00000426  0.52854914
   0.49998946  0.49999211  0.52851150
   0.33333568  0.16667014  0.41703835
   0.33333549  0.66666450  0.41703689
   0.83333335  0.16666648  0.41703716
   0.83332962  0.66666420  0.41703586
   0.16642308  0.33299891  0.63919246
   0.16581549  0.83344992  0.63881772
   0.66804241  0.33403630  0.63870869
   0.66681965  0.83360611  0.63921690
   0.33416089 -0.00079147  0.72519438
   0.41743854  0.17132638  0.72408274
Direct configuration=     6
   0.16666481  0.33333509  0.38786060
   0.16665753  0.83332455  0.38785962
   0.66667103  0.33333808  0.38786022
   0.66666983  0.83332865  0.38786119
  -0.00158462  0.00058236  0.61162668
  -0.00134718  0.49830450  0.61220639
   0.50274265  0.00060703  0.61134626
   0.50036422  0.49996800  0.61237606
   0.33336488  0.16676218  0.49997148
   0.33328394  0.66655847  0.49998693
   0.83339331  0.16676008  0.49999263
   0.83328739  0.66658204  0.50000097
   0.16665970  0.33330918  0.47065854
   0.16669798  0.83336953  0.47066331
   0.66664054  0.33329167  0.47065864
   0.66666777  0.83335869  0.47066162
  -0.00000413  0.00000216  0.36032660
  -0.00000621  0.49999038  0.36032660
   0.50000854  0.00000479  0.36032725
   0.50000219  0.49999975  0.36032734
   0.33319552  0.16626558  0.58264384
   0.33335677  0.66703543  0.58259482
   0.83327808  0.16639028  0.58253421
   0.83369066  0.66711113  0.58258062
   0.00001981  0.00002218  0.52937313
   0.00001799  0.49999590  0.52933772
   0.50000477 -0.00000806  0.52940845
   0.49997781  0.49998348  0.52933072
   0.33333842  0.16667328  0.41744679
   0.33333778  0.66666147  0.41744371
   0.83333387  0.16666601  0.41744443
   0.83332614  0.66666098  0.41744156
   0.16615283  0.33262817  0.63953270
   0.16487065  0.83358559  0.63874329
   0.66958203  0.33482563  0.63850811
   0.66698728  0.83390795  0.63958507
   0.33571545 -0.00041249  0.72664850
   0.41519100  0.17032030  0.72429341
Direct configuration=     7
   0.16666565  0.33333431  0.38826087
   0.16666117  0.83332789  0.38826019
   0.66666955  0.33333619  0.38826061
   0.66666887  0.83333043  0.38826117
  -0.00096973  0.00035533  0.61142599
  -0.00082411  0.49896263  0.61178007
   0.50167653  0.00037141  0.61125522
   0.50022365  0.49998204  0.61188377
   0.33335230  0.16672401  0.49998222
   0.33330346  0.66660210  0.49999173
   0.83336893  0.16672305  0.49999607
   0.83330582  0.66661583  0.50000024
   0.16666273  0.33331867  0.47126873
   0.16668568  0.83335511  0.47127168
   0.66665099  0.33330820  0.47126874
   0.66666746  0.83334839  0.47127051
  -0.00000269  0.00000134  0.36063378
  -0.00000393  0.49999402  0.36063378
   0.50000542  0.00000303  0.36063418
   0.50000147  0.50000000  0.36063423
   0.33324746  0.16641946  0.58291123
   0.33334553  0.66689266  0.58288114
   0.83329956  0.16649944  0.58284481
   0.83355426  0.66693815  0.58287284
   0.00001271  0.00001312  0.52875088
   0.00001149  0.49999852  0.52872912
   0.50000179 -0.00000524  0.52877242
   0.49998643  0.49998987  0.52872437
   0.33333639  0.16667096  0.41714448
   0.33333608  0.66666371  0.41714260
   0.83333349  0.16666636  0.41714298
   0.83332872  0.66666337  0.41714128
   0.16635285  0.33290258  0.63928086
   0.16556998  0.83348518  0.63879838
   0.66844246  0.33424140  0.63865657
   0.66686321  0.83368454  0.63931257
   0.33456482 -0.00069299  0.72557221
   0.41685454  0.17106496  0.72413748
Direct configuration=     8
   0.16666603  0.33333515  0.38827650
   0.16665942  0.83332634  0.38827821
   0.66667050  0.33333827  0.38827618
   0.66666879  0.83332879  0.38827803
  -0.00079864  0.00024099  0.61141571
  -0.00062015  0.49928761  0.61176544
   0.50138695  0.00018780  0.61121689
   0.50018159  0.49996729  0.61184417
   0.33334962  0.16676484  0.50000223
   0.33326900  0.66654085  0.50000815
   0.83341922  0.16677061  0.49996467
   0.83329514  0.66658960  0.50002022
   0.16664631  0.33330557  0.47121319
   0.16669685  0.83336557  0.47121665
   0.66665050  0.33328732  0.47121434
   0.66667345  0.83337180  0.47121749
  -0.00000160  0.00000187  0.36054431
  -0.00000339  0.49999425  0.36054421
   0.50000446  0.00000289  0.36054470
   0.50000051  0.49999903  0.36054453
   0.33334171  0.16653106  0.58295772
   0.33342690  0.66686999  0.58293710
   0.83329071  0.16645396  0.58287250
   0.83342102  0.66692296  0.58290973
  -0.00001337  0.00004725  0.52877718
  -0.00001862  0.49993926  0.52877226
   0.50006753  0.00002069  0.52880409
   0.49998264  0.49998663  0.52878026
   0.33333593  0.16667186  0.41707426
   0.33333413  0.66666153  0.41707222
   0.83333523  0.16666840  0.41707556
   0.83332907  0.66666217  0.41707093
   0.16633605  0.33289295  0.63936239
   0.16549994  0.83349722  0.63883102
   0.66862422  0.33432360  0.63868238
   0.66684494  0.83370116  0.63939789
   0.33490943 -0.00049261  0.72583805
   0.41634899  0.17072546  0.72418865
Direct configuration=     9
   0.16666682  0.33333690  0.38830877
   0.16665583  0.83332313  0.38831542
   0.66667246  0.33334259  0.38830836
   0.66666862  0.83332540  0.38831286
  -0.00044529  0.00000487  0.61139449
  -0.00019895  0.49995875  0.61173522
   0.50078892 -0.00019139  0.61113774
   0.50009473  0.49993684  0.61176240
   0.33334410  0.16684915  0.50004356
   0.33319785  0.66641436  0.50004206
   0.83352308  0.16686884  0.49989982
   0.83327308  0.66653542  0.50006149
   0.16661240  0.33327851  0.47109850
   0.16671990  0.83338717  0.47110300
   0.66664950  0.33324421  0.47110200
   0.66668582  0.83342016  0.47110799
   0.00000063  0.00000297  0.36035953
  -0.00000229  0.49999472  0.36035925
   0.50000248  0.00000258  0.36035992
   0.49999852  0.49999704  0.36035926
   0.33353635  0.16676155  0.58305373
   0.33359496  0.66682317  0.58305267
   0.83327243  0.16636005  0.58292967
   0.83314584  0.66689158  0.58298591
  -0.00006724  0.00011774  0.52883149
  -0.00008079  0.49981687  0.52886135
   0.50020330  0.00007425  0.52886948
   0.49997482  0.49997995  0.52889569
   0.33333497  0.16667373  0.41692924
   0.33333008  0.66665702  0.41692687
   0.83333883  0.16667262  0.41693631
   0.83332979  0.66665971  0.41692563
   0.16630135  0.33287305  0.63953075
   0.16535529  0.83352209  0.63889843
   0.66899959  0.33449337  0.63873567
   0.66680722  0.83373549  0.63957409
   0.33562110 -0.00007879  0.72638706
   0.41530493  0.17002431  0.72429433
Direct configuration=    10
   0.16666833  0.33333760  0.38830941
   0.16665541  0.83332300  0.38831754
   0.66667183  0.33334374  0.38830930
   0.66666801  0.83332367  0.38831446
  -0.00039460 -0.00002750  0.61139428
  -0.00013705  0.50005561  0.61173225
   0.50070446 -0.00024564  0.61112826
   0.50008255  0.49993378  0.61175276
   0.33334271  0.16686003  0.50004821
   0.33318767  0.66639696  0.50004514
   0.83353809  0.16688218  0.49988978
   0.83327072  0.66652903  0.50006626
   0.16660956  0.33327610  0.47108438
   0.16672395  0.83339023  0.47108973
   0.66664826  0.33323845  0.47108833
   0.66668602  0.83342529  0.47109477
   0.00000084  0.00000345  0.36032900
  -0.00000226  0.49999440  0.36032867
   0.50000252  0.00000273  0.36032940
   0.49999809  0.49999668  0.36032860
   0.33356922  0.16680008  0.58307055
   0.33362282  0.66681531  0.58307283
   0.83327035  0.16634319  0.58293992
   0.83309960  0.66688823  0.58299900
  -0.00007247  0.00012861  0.52883551
  -0.00008780  0.49980118  0.52887175
   0.50022103  0.00008016  0.52887522
   0.49997177  0.49997834  0.52890992
   0.33333485  0.16667467  0.41690440
   0.33332911  0.66665555  0.41690204
   0.83333993  0.16667384  0.41691160
   0.83332964  0.66665894  0.41690071
   0.16629869  0.33287238  0.63955857
   0.16533425  0.83352569  0.63891046
   0.66905948  0.33452081  0.63874528
   0.66679822  0.83373871  0.63960308
   0.33565119 -0.00021156  0.72648707
   0.41521603  0.17010611  0.72431154
Direct configuration=    11
   0.16667286  0.33333969  0.38831133
   0.16665416  0.83332261  0.38832391
   0.66666993  0.33334721  0.38831212
   0.66666619  0.83331848  0.38831927
  -0.00024252 -0.00012461  0.61139365
   0.00004865  0.50034617  0.61172332
   0.50045109 -0.00040839  0.61109981
   0.50004601  0.49992461  0.61172384
   0.33333853  0.16689266  0.50006215
   0.33315713  0.66634475  0.50005439
   0.83358310  0.16692218  0.49985965
   0.83326363  0.66650986  0.50008057
   0.16660106  0.33326885  0.47104202
   0.16673608  0.83339941  0.47104994
   0.66664456  0.33322117  0.47104731
   0.66668661  0.83344067  0.47105511
   0.00000147  0.00000487  0.36023740
  -0.00000214  0.49999341  0.36023695
   0.50000265  0.00000317  0.36023785
   0.49999678  0.49999559  0.36023661
   0.33366784  0.16691566  0.58312101
   0.33370642  0.66679172  0.58313332
   0.83326412  0.16629260  0.58297069
   0.83296086  0.66687817  0.58303826
  -0.00008817  0.00016123  0.52884758
  -0.00010885  0.49975411  0.52890295
   0.50027423  0.00009789  0.52889244
   0.49996262  0.49997349  0.52895264
   0.33333449  0.16667748  0.41682988
   0.33332619  0.66665112  0.41682755
   0.83334323  0.16667751  0.41683750
   0.83332918  0.66665663  0.41682595
   0.16629072  0.33287038  0.63964203
   0.16527113  0.83353651  0.63894656
   0.66923914  0.33460311  0.63877411
   0.66677123  0.83374836  0.63969005
   0.33574146 -0.00060987  0.72678709
   0.41494932  0.17035150  0.72436319
Direct configuration=    12
   0.16668191  0.33334388  0.38831515
   0.16665165  0.83332182  0.38833665
   0.66666613  0.33335415  0.38831775
   0.66666256  0.83330811  0.38832887
   0.00006164 -0.00031882  0.61139238
   0.00042005  0.50092730  0.61170547
   0.49994435 -0.00073389  0.61104292
   0.49997294  0.49990628  0.61166599
   0.33333018  0.16695792  0.50009003
   0.33309606  0.66624034  0.50007288
   0.83367314  0.16700220  0.49979940
   0.83324947  0.66647152  0.50010919
   0.16658406  0.33325437  0.47095730
   0.16676035  0.83341778  0.47097035
   0.66663715  0.33318662  0.47096528
   0.66668778  0.83347143  0.47097580
   0.00000273  0.00000770  0.36005422
  -0.00000192  0.49999144  0.36005350
   0.50000291  0.00000405  0.36005474
   0.49999418  0.49999341  0.36005264
   0.33386508  0.16714683  0.58322193
   0.33387360  0.66674455  0.58325430
   0.83325165  0.16619143  0.58303222
   0.83268338  0.66685805  0.58311677
  -0.00011956  0.00022645  0.52887173
  -0.00015093  0.49965999  0.52896536
   0.50038062  0.00013336  0.52892688
   0.49994432  0.49996379  0.52903808
   0.33333377  0.16668312  0.41668083
   0.33332035  0.66664226  0.41667857
   0.83334984  0.16668484  0.41668928
   0.83332826  0.66665202  0.41667643
   0.16627477  0.33286636  0.63980896
   0.16514490  0.83355816  0.63901875
   0.66959847  0.33476773  0.63883177
   0.66671725  0.83376766  0.63986400
   0.33592201 -0.00140649  0.72738712
   0.41441590  0.17084229  0.72446648
Direct configuration=    13
   0.16667656  0.33334141  0.38831289
   0.16665313  0.83332229  0.38832912
   0.66666837  0.33335005  0.38831442
   0.66666471  0.83331424  0.38832319
  -0.00011814 -0.00020403  0.61139313
   0.00020053  0.50058382  0.61171602
   0.50024386 -0.00054150  0.61107655
   0.50001613  0.49991712  0.61170018
   0.33333512  0.16691935  0.50007355
   0.33313215  0.66630205  0.50006195
   0.83361992  0.16695490  0.49983502
   0.83325784  0.66649418  0.50009228
   0.16659411  0.33326293  0.47100738
   0.16674600  0.83340692  0.47101739
   0.66664153  0.33320704  0.47101376
   0.66668709  0.83345325  0.47102268
   0.00000198  0.00000603  0.36016249
  -0.00000205  0.49999260  0.36016193
   0.50000276  0.00000353  0.36016297
   0.49999572  0.49999470  0.36016138
   0.33374850  0.16701019  0.58316228
   0.33377479  0.66677243  0.58318279
   0.83325902  0.16625123  0.58299585
   0.83284739  0.66686994  0.58307036
  -0.00010100  0.00018790  0.52885746
  -0.00012606  0.49971562  0.52892847
   0.50031773  0.00011240  0.52890653
   0.49995514  0.49996952  0.52898758
   0.33333420  0.16667979  0.41676893
   0.33332380  0.66664750  0.41676663
   0.83334593  0.16668051  0.41677689
   0.83332880  0.66665475  0.41676481
   0.16628419  0.33286873  0.63971030
   0.16521951  0.83354537  0.63897608
   0.66938608  0.33467043  0.63879769
   0.66674915  0.83375625  0.63976119
   0.33581530 -0.00093564  0.72703246
   0.41473119  0.17055220  0.72440542
Direct configuration=    14
   0.16668159  0.33334297  0.38829482
   0.16665330  0.83332335  0.38831423
   0.66666510  0.33335210  0.38829763
   0.66666264  0.83330960  0.38830760
  -0.00011258 -0.00020099  0.61140518
   0.00021244  0.50059767  0.61172371
   0.50024342 -0.00054678  0.61108216
   0.50001573  0.49991978  0.61171024
   0.33333305  0.16691904  0.50007026
   0.33312968  0.66629910  0.50005644
   0.83362460  0.16695596  0.49982972
   0.83325910  0.66649670  0.50008951
   0.16660061  0.33326769  0.47100899
   0.16674928  0.83340713  0.47102167
   0.66663774  0.33320763  0.47101589
   0.66668159  0.83344773  0.47102498
   0.00000171  0.00000711  0.36013942
  -0.00000236  0.49999125  0.36013877
   0.50000376  0.00000406  0.36013995
   0.49999511  0.49999435  0.36013802
   0.33377068  0.16703389  0.58317404
   0.33379251  0.66676862  0.58319700
   0.83326109  0.16623469  0.58300230
   0.83281783  0.66687663  0.58307806
  -0.00009219  0.00019250  0.52884910
  -0.00011988  0.49972018  0.52892616
   0.50031407  0.00010653  0.52889896
   0.49994730  0.49996680  0.52898605
   0.33333411  0.16668230  0.41675219
   0.33332216  0.66664411  0.41675011
   0.83334843  0.16668294  0.41675783
   0.83332792  0.66665313  0.41674798
   0.16629012  0.33287466  0.63973046
   0.16521105  0.83354778  0.63898816
   0.66943063  0.33469314  0.63880488
   0.66673547  0.83375244  0.63978239
   0.33590129 -0.00094122  0.72712826
   0.41458292  0.17050544  0.72442687
Direct configuration=    15
   0.16669668  0.33334767  0.38824061
   0.16665380  0.83332656  0.38826954
   0.66665528  0.33335823  0.38824727
   0.66665645  0.83329567  0.38826082
  -0.00009590 -0.00019188  0.61144131
   0.00024816  0.50063924  0.61174678
   0.50024210 -0.00056264  0.61109900
   0.50001454  0.49992776  0.61174043
   0.33332687  0.16691810  0.50006037
   0.33312226  0.66629025  0.50003990
   0.83363864  0.16695914  0.49981384
   0.83326285  0.66650424  0.50008123
   0.16662012  0.33328195  0.47101384
   0.16675912  0.83340773  0.47103452
   0.66662635  0.33320940  0.47102228
   0.66666510  0.83343116  0.47103188
   0.00000087  0.00001037  0.36007020
  -0.00000330  0.49998719  0.36006929
   0.50000677  0.00000565  0.36007090
   0.49999327  0.49999328  0.36006792
   0.33383719  0.16710497  0.58320932
   0.33384569  0.66675719  0.58323963
   0.83326731  0.16618506  0.58302164
   0.83272914  0.66689672  0.58310116
  -0.00006574  0.00020630  0.52882405
  -0.00010137  0.49973385  0.52891921
   0.50030308  0.00008891  0.52887628
   0.49992379  0.49995864  0.52898145
   0.33333384  0.16668984  0.41670198
   0.33331722  0.66663396  0.41670054
   0.83335593  0.16669026  0.41670065
   0.83332525  0.66664826  0.41669749
   0.16630791  0.33289245  0.63979096
   0.16518565  0.83355501  0.63902439
   0.66956428  0.33476127  0.63882646
   0.66669443  0.83374101  0.63984601
   0.33615927 -0.00095796  0.72741567
   0.41413810  0.17036517  0.72449121
Direct configuration=    16
   0.16672685  0.33335705  0.38813218
   0.16665479  0.83333297  0.38818017
   0.66663563  0.33337051  0.38814654
   0.66664406  0.83326781  0.38816726
  -0.00006255 -0.00017366  0.61151358
   0.00031961  0.50072237  0.61179290
   0.50023945 -0.00059435  0.61113268
   0.50001215  0.49994373  0.61180080
   0.33331450  0.16691623  0.50004060
   0.33310743  0.66627255  0.50000682
   0.83366671  0.16696549  0.49978207
   0.83327036  0.66651933  0.50006466
   0.16665912  0.33331049  0.47102355
   0.16677878  0.83340893  0.47106020
   0.66660359  0.33321293  0.47103506
   0.66663212  0.83339802  0.47104568
  -0.00000080  0.00001688  0.35993175
  -0.00000517  0.49997907  0.35993032
   0.50001280  0.00000885  0.35993280
   0.49998959  0.49999115  0.35992772
   0.33397023  0.16724715  0.58327988
   0.33395206  0.66673434  0.58332489
   0.83327974  0.16608581  0.58306033
   0.83255177  0.66693688  0.58314736
  -0.00001284  0.00023391  0.52877393
  -0.00006434  0.49976119  0.52890532
   0.50028111  0.00005369  0.52883090
   0.49987676  0.49994231  0.52897225
   0.33333330  0.16670491  0.41660154
   0.33330735  0.66661366  0.41660140
   0.83337093  0.16670489  0.41658628
   0.83331992  0.66663854  0.41659652
   0.16634348  0.33292803  0.63991195
   0.16513486  0.83356949  0.63909686
   0.66983158  0.33489753  0.63886960
   0.66661234  0.83371814  0.63997324
   0.33667523 -0.00099144  0.72799049
   0.41324847  0.17008462  0.72461988
Direct configuration=    17
   0.16678721  0.33337583  0.38791534
   0.16665678  0.83334579  0.38800143
   0.66659633  0.33339506  0.38794508
   0.66661929  0.83321208  0.38798015
   0.00000416 -0.00013721  0.61165812
   0.00046250  0.50088863  0.61188516
   0.50023416 -0.00065777  0.61120004
   0.50000739  0.49997567  0.61192154
   0.33328976  0.16691249  0.50000106
   0.33307775  0.66623714  0.49994067
   0.83372286  0.16697819  0.49971854
   0.83328539  0.66654950  0.50003152
   0.16673714  0.33336755  0.47104295
   0.16681812  0.83341135  0.47111158
   0.66655807  0.33321999  0.47106062
   0.66656615  0.83333174  0.47107330
  -0.00000413  0.00002991  0.35965485
  -0.00000890  0.49996283  0.35965240
   0.50002485  0.00001523  0.35965659
   0.49998224  0.49998689  0.35964733
   0.33423631  0.16753149  0.58342100
   0.33416478  0.66668862  0.58349540
   0.83330460  0.16588730  0.58313770
   0.83219703  0.66701722  0.58323975
   0.00009296  0.00028913  0.52867369
   0.00000972  0.49981587  0.52887754
   0.50023716 -0.00001677  0.52874016
   0.49978271  0.49990967  0.52895386
   0.33333222  0.16673507  0.41640068
   0.33328761  0.66657306  0.41640312
   0.83340093  0.16673416  0.41635756
   0.83330926  0.66661909  0.41639458
   0.16641463  0.33299919  0.64015394
   0.16503327  0.83359844  0.63924180
   0.67036618  0.33517005  0.63895589
   0.66644817  0.83367240  0.64022771
   0.33770715 -0.00105840  0.72914011
   0.41146921  0.16952351  0.72487723
Direct configuration=    18
   0.16690791  0.33341339  0.38748165
   0.16666075  0.83337142  0.38764395
   0.66651773  0.33344416  0.38754216
   0.66656973  0.83310064  0.38760591
   0.00013757 -0.00006431  0.61194719
   0.00074829  0.50122116  0.61206968
   0.50022357 -0.00078462  0.61133475
   0.49999785  0.50003956  0.61216302
   0.33324029  0.16690502  0.49992197
   0.33301840  0.66616633  0.49980836
   0.83383516  0.16700360  0.49959149
   0.83331544  0.66660986  0.49996524
   0.16689317  0.33348169  0.47108177
   0.16689679  0.83341617  0.47121433
   0.66646702  0.33323412  0.47111173
   0.66643422  0.83319918  0.47112852
  -0.00001080  0.00005597  0.35910106
  -0.00001637  0.49993035  0.35909655
   0.50004894  0.00002800  0.35910417
   0.49996754  0.49997836  0.35908654
   0.33476846  0.16810018  0.58370325
   0.33459023  0.66659720  0.58383642
   0.83335432  0.16549028  0.58329245
   0.83148754  0.66717789  0.58342453
   0.00030455  0.00039957  0.52847322
   0.00015783  0.49992522  0.52882198
   0.50014927 -0.00015768  0.52855866
   0.49959461  0.49984437  0.52891708
   0.33333005  0.16679537  0.41599896
   0.33324813  0.66649185  0.41600657
   0.83346093  0.16679270  0.41590011
   0.83328795  0.66658018  0.41599070
   0.16655693  0.33314150  0.64063792
   0.16483010  0.83365634  0.63953167
   0.67143539  0.33571508  0.63912847
   0.66611982  0.83358092  0.64073665
   0.33977100 -0.00119231  0.73143937
   0.40791068  0.16840130  0.72539193
Direct configuration=    19
   0.16689076  0.33340105  0.38734452
   0.16666215  0.83337609  0.38752189
   0.66652359  0.33343335  0.38741482
   0.66657993  0.83311940  0.38748125
  -0.00000705  0.00008191  0.61203049
   0.00060513  0.50096539  0.61213797
   0.50055381 -0.00061432  0.61140785
   0.50005673  0.50009317  0.61227671
   0.33326735  0.16691499  0.49990692
   0.33306875  0.66619026  0.49978843
   0.83381109  0.16695836  0.49960092
   0.83327958  0.66662893  0.49995521
   0.16692518  0.33352168  0.47107347
   0.16689068  0.83338961  0.47121819
   0.66647236  0.33326675  0.47111108
   0.66641241  0.83315515  0.47112346
  -0.00000748  0.00004892  0.35899916
  -0.00000900  0.49994298  0.35899339
   0.50003785  0.00001951  0.35900472
   0.49996795  0.49998154  0.35897910
   0.33477949  0.16808207  0.58373611
   0.33461387  0.66663770  0.58386465
   0.83339028  0.16540028  0.58330086
   0.83150022  0.66731533  0.58343383
   0.00040594  0.00041002  0.52843074
   0.00022093  0.50000912  0.52879698
   0.50007157 -0.00021980  0.52851743
   0.49953970  0.49983122  0.52887028
   0.33332270  0.16679686  0.41593172
   0.33324147  0.66648329  0.41594013
   0.83347146  0.16679704  0.41582588
   0.83329204  0.66658314  0.41592605
   0.16655510  0.33314882  0.64071360
   0.16485007  0.83367045  0.63960646
   0.67160135  0.33576541  0.63917442
   0.66608890  0.83361121  0.64082419
   0.34068054 -0.00015512  0.73194880
   0.40660360  0.16704826  0.72557830
Direct configuration=    20
   0.16689464  0.33340384  0.38737553
   0.16666184  0.83337504  0.38754949
   0.66652227  0.33343580  0.38744362
   0.66657762  0.83311516  0.38750944
   0.00002565  0.00004885  0.61201166
   0.00063750  0.50102322  0.61212253
   0.50047914 -0.00065282  0.61139132
   0.50004342  0.50008105  0.61225100
   0.33326123  0.16691274  0.49991032
   0.33305736  0.66618485  0.49979294
   0.83381653  0.16696859  0.49959878
   0.83328769  0.66662462  0.49995748
   0.16691794  0.33351264  0.47107535
   0.16689206  0.83339562  0.47121732
   0.66647115  0.33325938  0.47111123
   0.66641734  0.83316510  0.47112461
  -0.00000823  0.00005051  0.35902220
  -0.00001066  0.49994012  0.35901672
   0.50004036  0.00002143  0.35902720
   0.49996786  0.49998082  0.35900340
   0.33477700  0.16808616  0.58372868
   0.33460853  0.66662854  0.58385826
   0.83338215  0.16542063  0.58329896
   0.83149735  0.66728426  0.58343173
   0.00038301  0.00040766  0.52844035
   0.00020666  0.49999015  0.52880264
   0.50008914 -0.00020575  0.52852676
   0.49955211  0.49983419  0.52888087
   0.33332436  0.16679652  0.41594693
   0.33324298  0.66648522  0.41595515
   0.83346908  0.16679606  0.41584267
   0.83329111  0.66658247  0.41594067
   0.16655551  0.33314716  0.64069649
   0.16484555  0.83366726  0.63958955
   0.67156383  0.33575403  0.63916403
   0.66609589  0.83360436  0.64080440
   0.34047489 -0.00038964  0.73183361
   0.40689914  0.16735419  0.72553616
Direct configuration=    21
   0.16684599  0.33337901  0.38725931
   0.16666285  0.83337624  0.38744054
   0.66654696  0.33341109  0.38733561
   0.66660239  0.83316406  0.38739883
  -0.00019340  0.00023515  0.61207605
   0.00039903  0.50062174  0.61218450
   0.50093397 -0.00040158  0.61147081
   0.50013002  0.50015564  0.61236538