CeO2                                    
           1
     7.707464    0.000000    0.000000
    -3.853732    6.674860    0.000000
     0.000000    0.000000   28.319031
   Ce   O    C    O 
  12  24   1   1
Direct configuration=     1
   0.16665618  0.33338004  0.38724615
   0.16662097  0.83325401  0.38727438
   0.66673400  0.33339431  0.38722200
   0.66666414  0.83330006  0.38725272
   0.99826672  0.99904576  0.61215329
   0.99862984  0.50001578  0.61222251
   0.49945128  0.99977447  0.61270288
   0.49979249  0.50009146  0.61241358
   0.33359325  0.16659429  0.49992793
   0.33373647  0.66712943  0.49990997
   0.83265466  0.16624386  0.49986549
   0.83315768  0.66662150  0.49958179
   0.16683735  0.33338680  0.47115396
   0.16641162  0.83323011  0.47118227
   0.66667877  0.33364680  0.47116216
   0.66671108  0.83304970  0.47120638
   0.00002279  0.00001473  0.35891876
   0.00000371  0.49999531  0.35891265
   0.50000012  0.00001198  0.35892013
   0.49999223  0.49997968  0.35891584
   0.33400239  0.16735696  0.58418262
   0.33578817  0.66887165  0.58380372
   0.82830366  0.16315063  0.58317474
   0.83172349  0.66656318  0.58387181
   0.00017277  0.99962499  0.52868649
   0.00000093  0.50035034  0.52862944
   0.49912027  0.99988965  0.52851235
   0.50021861  0.49994015  0.52897888
   0.33337328  0.16669649  0.41587931
   0.33334029  0.66665877  0.41590773
   0.83332413  0.16668641  0.41586995
   0.83331033  0.66663044  0.41596034
   0.15964853  0.33291779  0.63830049
   0.16684785  0.83435350  0.64122595
   0.66633761  0.33354697  0.64104837
   0.66615101  0.83177419  0.64145561
   0.32937638  0.33211433  0.76720623
   0.35301093  0.33737946  0.72727711
Direct configuration=     2
   0.16670848  0.33331890  0.38734289
   0.16681010  0.83343724  0.38732257
   0.66655442  0.33320200  0.38726937
   0.66660084  0.83337077  0.38727224
   0.99821942  0.99905413  0.61209354
   0.99854612  0.49998601  0.61209718
   0.49926124  0.99975331  0.61262626
   0.49975480  0.50013778  0.61241801
   0.33341837  0.16672526  0.50001249
   0.33345696  0.66681433  0.50000731
   0.83289193  0.16645339  0.49991327
   0.83320679  0.66655920  0.49978253
   0.16680425  0.33337197  0.47102396
   0.16644177  0.83324290  0.47097875
   0.66664603  0.33356576  0.47098384
   0.66666710  0.83310564  0.47102444
  -0.00004590 -0.00006861  0.35893520
  -0.00002080  0.50003225  0.35892417
   0.50001393 -0.00001451  0.35893044
   0.50007165  0.50005252  0.35892598
   0.33369411  0.16699412  0.58408550
   0.33522843  0.66878758  0.58376842
   0.82862786  0.16347776  0.58323319
   0.83213269  0.66665732  0.58380140
   0.00022483  0.99972050  0.52875635
   0.00001163  0.50028969  0.52876548
   0.49885305  0.99987526  0.52850451
   0.50007414  0.49986754  0.52892258
   0.33339972  0.16665322  0.41588424
   0.33340743  0.66674829  0.41589863
   0.83323277  0.16661117  0.41587127
   0.83329521  0.66665096  0.41590372
   0.15982805  0.33283622  0.63855336
   0.16637951  0.83392937  0.64112535
   0.66680909  0.33368225  0.64099715
   0.66637372  0.83207109  0.64142583
   0.32908821  0.33200073  0.76746036
   0.35399806  0.33771268  0.72727420
Direct configuration=     3
   0.16669084  0.33333953  0.38731026
   0.16674630  0.83337543  0.38730631
   0.66661500  0.33326687  0.38725339
   0.66662220  0.83334692  0.38726566
   0.99823538  0.99905131  0.61211370
   0.99857436  0.49999605  0.61213946
   0.49932535  0.99976045  0.61265211
   0.49976752  0.50012215  0.61241652
   0.33347736  0.16668108  0.49998397
   0.33355125  0.66692063  0.49997448
   0.83281189  0.16638271  0.49989715
   0.83319023  0.66658022  0.49971481
   0.16681542  0.33337697  0.47106782
   0.16643159  0.83323858  0.47104740
   0.66665707  0.33359310  0.47104400
   0.66668194  0.83308677  0.47108582
  -0.00002273 -0.00004050  0.35892966
  -0.00001253  0.50001979  0.35892029
   0.50000927 -0.00000557  0.35892696
   0.50004486  0.50002795  0.35892256
   0.33379810  0.16711651  0.58411826
   0.33541725  0.66881594  0.58378033
   0.82851849  0.16336741  0.58321347
   0.83199465  0.66662556  0.58382515
   0.00020727  0.99968828  0.52873278
   0.00000802  0.50031015  0.52871959
   0.49894319  0.99988012  0.52850716
   0.50012288  0.49989203  0.52894157
   0.33339080  0.16666781  0.41588258
   0.33338478  0.66671809  0.41590170
   0.83326359  0.16663655  0.41587082
   0.83330031  0.66664404  0.41592282
   0.15976749  0.33286374  0.63846806
   0.16653750  0.83407244  0.64115928
   0.66665005  0.33363662  0.64101442
   0.66629859  0.83197094  0.64143588
   0.32918542  0.33203905  0.76737463
   0.35366507  0.33760027  0.72727518
Direct configuration=     4
   0.16670427  0.33332594  0.38733283
   0.16678910  0.83341739  0.38731680
   0.66657342  0.33322408  0.38726365
   0.66660759  0.83336149  0.38726902
   0.99822685  0.99906195  0.61209987
   0.99855395  0.49998243  0.61210863
   0.49927189  0.99975620  0.61263037
   0.49975022  0.50013031  0.61241949
   0.33343234  0.16671043  0.50000063
   0.33348262  0.66684705  0.49999356
   0.83286369  0.16642995  0.49990378
   0.83320251  0.66656648  0.49975994
   0.16680340  0.33337269  0.47103628
   0.16643597  0.83323907  0.47099663
   0.66665139  0.33357307  0.47100000
   0.66667155  0.83310278  0.47104104
  -0.00003897 -0.00005930  0.35893499
  -0.00001810  0.50002756  0.35892468
   0.50001339 -0.00001162  0.35893011
   0.50006323  0.50004505  0.35892617
   0.33371816  0.16702558  0.58409296
   0.33527011  0.66878929  0.58377127
   0.82860639  0.16345480  0.58322870
   0.83209559  0.66664844  0.58380542
   0.00021895  0.99971537  0.52875168
   0.00000940  0.50029076  0.52875555
   0.49887373  0.99987680  0.52850618
   0.50008317  0.49987310  0.52892847
   0.33339749  0.16665811  0.41588648
   0.33340198  0.66673950  0.41590201
   0.83324130  0.16661775  0.41587394
   0.83329543  0.66664882  0.41591069
   0.15982693  0.33284341  0.63853674
   0.16641131  0.83395925  0.64113060
   0.66677127  0.33367375  0.64099829
   0.66635403  0.83204630  0.64142551
   0.32914691  0.33201628  0.76737554
   0.35390352  0.33768567  0.72734750
Direct configuration=     5
   0.16672816  0.33330177  0.38737300
   0.16686528  0.83349207  0.38733546
   0.66649944  0.33314793  0.38728191
   0.66658160  0.83338744  0.38727500
   0.99821167  0.99908088  0.61207525
   0.99851762  0.49995819  0.61205376
   0.49917675  0.99974863  0.61259169
   0.49971945  0.50014484  0.61242478
   0.33335221  0.16676266  0.50003027
   0.33336049  0.66671612  0.50002752
   0.83295589  0.16651403  0.49991558
   0.83322438  0.66654202  0.49984025
   0.16678201  0.33336507  0.47098016
   0.16644377  0.83323993  0.47090626
   0.66664127  0.33353742  0.47092169
   0.66665307  0.83313128  0.47096135
  -0.00006787 -0.00009276  0.35894448
  -0.00002800  0.50004140  0.35893251
   0.50002072 -0.00002240  0.35893571
   0.50009594  0.50007550  0.35893259
   0.33357588  0.16686374  0.58404794
   0.33500824  0.66874188  0.58375516
   0.82876280  0.16361033  0.58325580
   0.83227522  0.66668915  0.58377030
   0.00023974  0.99976359  0.52878532
   0.00001185  0.50025627  0.52881955
   0.49875011  0.99987090  0.52850444
   0.50001250  0.49983940  0.52890515
   0.33340940  0.16664084  0.41589343
   0.33343258  0.66677760  0.41590256
   0.83320165  0.16658430  0.41587949
   0.83328674  0.66665731  0.41588910
   0.15993271  0.33280723  0.63865898
   0.16618674  0.83375781  0.64107955
   0.66698702  0.33373982  0.64096958
   0.66645270  0.83218043  0.64140705
   0.32907837  0.33197575  0.76737717
   0.35432790  0.33783765  0.72747620
Direct configuration=     6
   0.16673170  0.33329819  0.38737895
   0.16687656  0.83350314  0.38733823
   0.66648848  0.33313665  0.38728462
   0.66657775  0.83339128  0.38727589
   0.99820942  0.99908368  0.61207161
   0.99851224  0.49995460  0.61204563
   0.49916266  0.99974751  0.61258595
   0.49971489  0.50014699  0.61242557
   0.33334034  0.16677040  0.50003466
   0.33334240  0.66669672  0.50003255
   0.83296955  0.16652648  0.49991733
   0.83322762  0.66653840  0.49985215
   0.16677884  0.33336394  0.47097184
   0.16644492  0.83324006  0.47089288
   0.66663977  0.33353214  0.47091009
   0.66665033  0.83313551  0.47094955
  -0.00007215 -0.00009772  0.35894588
  -0.00002946  0.50004345  0.35893367
   0.50002181 -0.00002400  0.35893654
   0.50010079  0.50008001  0.35893354
   0.33355480  0.16683976  0.58404127
   0.33496945  0.66873485  0.58375277
   0.82878598  0.16363338  0.58325982
   0.83230183  0.66669518  0.58376509
   0.00024282  0.99977073  0.52879031
   0.00001222  0.50025116  0.52882903
   0.49873180  0.99987003  0.52850418
   0.50000203  0.49983441  0.52890170
   0.33341116  0.16663828  0.41589446
   0.33343711  0.66678324  0.41590264
   0.83319577  0.16657934  0.41588031
   0.83328545  0.66665857  0.41588591
   0.15994839  0.33280187  0.63867709
   0.16615346  0.83372797  0.64107199
   0.66701898  0.33374961  0.64096533
   0.66646731  0.83220030  0.64140432
   0.32906822  0.33196975  0.76737741
   0.35439077  0.33786016  0.72749527
Direct configuration=     7
   0.16673224  0.33330204  0.38737525
   0.16686444  0.83349391  0.38733399
   0.66649526  0.33314969  0.38728026
   0.66657996  0.83338312  0.38727122
   0.99821557  0.99910477  0.61207416
   0.99851121  0.49993850  0.61204572
   0.49914078  0.99974867  0.61257680
   0.49969337  0.50013992  0.61243080
   0.33333257  0.16676079  0.50002353
   0.33334029  0.66670815  0.50001953
   0.83294930  0.16651416  0.49990332
   0.83322785  0.66654292  0.49984255
   0.16676300  0.33336109  0.47096768
   0.16643395  0.83323080  0.47088192
   0.66664607  0.33352931  0.47090217
   0.66664945  0.83314501  0.47094201
  -0.00007319 -0.00009529  0.35895079
  -0.00002941  0.50004082  0.35893922
   0.50002324 -0.00002392  0.35893890
   0.50009863  0.50007987  0.35893746
   0.33352674  0.16681676  0.58403268
   0.33491326  0.66871317  0.58375018
   0.82882480  0.16366949  0.58326539
   0.83232009  0.66669888  0.58375432
   0.00023998  0.99978526  0.52879925
   0.00000726  0.50023493  0.52884304
   0.49870605  0.99986959  0.52850737
   0.49998160  0.49982835  0.52890202
   0.33341109  0.16663895  0.41590331
   0.33343990  0.66678436  0.41591048
   0.83319224  0.16657568  0.41588949
   0.83328106  0.66665874  0.41588939
   0.16000731  0.33279711  0.63871154
   0.16609558  0.83368003  0.64105455
   0.66705468  0.33376716  0.64095224
   0.66647785  0.83222134  0.64139361
   0.32903327  0.33195279  0.76739546
   0.35455865  0.33791909  0.72752442
Direct configuration=     8
   0.16673385  0.33331358  0.38736414
   0.16682806  0.83346624  0.38732129
   0.66651562  0.33318880  0.38726719
   0.66658656  0.83335863  0.38725722
   0.99823403  0.99916802  0.61208183
   0.99850812  0.49989019  0.61204597
   0.49907516  0.99975216  0.61254933
   0.49962880  0.50011870  0.61244648
   0.33330925  0.16673196  0.49999014
   0.33333397  0.66674244  0.49998048
   0.83288855  0.16647720  0.49986128
   0.83322853  0.66655647  0.49981377
   0.16671546  0.33335256  0.47095519
   0.16640104  0.83320305  0.47084904
   0.66666498  0.33352084  0.47087840
   0.66664679  0.83317353  0.47091941
  -0.00007628 -0.00008800  0.35896549
  -0.00002924  0.50003291  0.35895588
   0.50002755 -0.00002370  0.35894598
   0.50009215  0.50007945  0.35894922
   0.33344256  0.16674775  0.58400690
   0.33474470  0.66864813  0.58374243
   0.82894129  0.16377783  0.58328211
   0.83237487  0.66670999  0.58372201
   0.00023149  0.99982884  0.52882608
  -0.00000761  0.50018624  0.52888508
   0.49862882  0.99986829  0.52851695
   0.49992031  0.49981019  0.52890297
   0.33341086  0.16664094  0.41592983
   0.33344824  0.66678773  0.41593399
   0.83318167  0.16656470  0.41591700
   0.83326789  0.66665923  0.41589985
   0.16018409  0.33278281  0.63881487
   0.16592194  0.83353623  0.64100226
   0.66716178  0.33381982  0.64091300
   0.66650946  0.83228447  0.64136149
   0.32892842  0.33190189  0.76744960
   0.35506231  0.33809588  0.72761187
Direct configuration=     9
   0.16673707  0.33333667  0.38734193
   0.16675531  0.83341090  0.38729589
   0.66655633  0.33326704  0.38724105
   0.66659977  0.83330964  0.38722921
   0.99827093  0.99929452  0.61209716
   0.99850193  0.49979358  0.61204649
   0.49894392  0.99975915  0.61249440
   0.49949966  0.50007628  0.61247784
   0.33326263  0.16667429  0.49992335
   0.33332132  0.66681103  0.49990237
   0.83276705  0.16640328  0.49977721
   0.83322989  0.66658358  0.49975620
   0.16662038  0.33333550  0.47093021
   0.16633523  0.83314754  0.47078328
   0.66670279  0.33350389  0.47083088
   0.66664147  0.83323056  0.47087419
  -0.00008246 -0.00007341  0.35899489
  -0.00002891  0.50001710  0.35898919
   0.50003617 -0.00002326  0.35896013
   0.50007918  0.50007861  0.35897273
   0.33327419  0.16660973  0.58395534
   0.33440758  0.66851805  0.58372691
   0.82917425  0.16399451  0.58331555
   0.83248444  0.66673219  0.58365738
   0.00021449  0.99991600  0.52887973
  -0.00003736  0.50008885  0.52896916
   0.49847435  0.99986568  0.52853609
   0.49979773  0.49977385  0.52890488
   0.33341039  0.16664492  0.41598288
   0.33346492  0.66679447  0.41598102
   0.83316051  0.16654275  0.41597203
   0.83324156  0.66666023  0.41592077
   0.16053764  0.33275422  0.63902153
   0.16557466  0.83324862  0.64089767
   0.66737596  0.33392513  0.64083452
   0.66657267  0.83241072  0.64129724
   0.32871871  0.33180011  0.76755789
   0.35606963  0.33844945  0.72778678
Direct configuration=    10
   0.16674350  0.33338286  0.38729751
   0.16660982  0.83330022  0.38724509
   0.66663776  0.33342352  0.38718878
   0.66662619  0.83321168  0.38717320
   0.99834474  0.99954753  0.61212781
   0.99848957  0.49960036  0.61204751
   0.49868144  0.99977311  0.61238454
   0.49924138  0.49999142  0.61254058
   0.33316938  0.16655896  0.49978978
   0.33329603  0.66694820  0.49974616
   0.83252406  0.16625543  0.49960907
   0.83323261  0.66663779  0.49964107
   0.16643022  0.33330138  0.47088025
   0.16620359  0.83303652  0.47065177
   0.66677840  0.33346999  0.47073582
   0.66663083  0.83334463  0.47078377
  -0.00009482 -0.00004425  0.35905369
  -0.00002824  0.49998547  0.35905582
   0.50005342 -0.00002238  0.35898844
   0.50005326  0.50007694  0.35901977
   0.33293746  0.16633370  0.58385223
   0.33373334  0.66825790  0.58369587
   0.82964017  0.16442787  0.58338244
   0.83270356  0.66677660  0.58352811
   0.00018050  0.00009032  0.52898704
  -0.00009685  0.49989409  0.52913731
   0.49816542  0.99986047  0.52857437
   0.49955258  0.49970119  0.52890870
   0.33340947  0.16665289  0.41608899
   0.33349828  0.66680795  0.41607508
   0.83311819  0.16649885  0.41608209
   0.83318890  0.66666222  0.41596261
   0.16124475  0.33269703  0.63943485
   0.16488010  0.83267341  0.64068849
   0.66780434  0.33413575  0.64067755
   0.66669910  0.83266323  0.64116874
   0.32829930  0.33159654  0.76777448
   0.35808426  0.33915660  0.72813660
Direct configuration=    11
   0.16674067  0.33336253  0.38731706
   0.16667385  0.83334894  0.38726745
   0.66660192  0.33335465  0.38721179
   0.66661456  0.83325480  0.38719785
   0.99831225  0.99943617  0.61211432
   0.99849501  0.49968541  0.61204706
   0.49879697  0.99976697  0.61243290
   0.49935506  0.50002877  0.61251297
   0.33321042  0.16660972  0.49984857
   0.33330716  0.66688783  0.49981492
   0.83263101  0.16632051  0.49968308
   0.83323142  0.66661393  0.49969175
   0.16651391  0.33331640  0.47090224
   0.16626152  0.83308538  0.47070965
   0.66674512  0.33348491  0.47077766
   0.66663551  0.83329442  0.47082357
  -0.00008938 -0.00005708  0.35902781
  -0.00002853  0.49999939  0.35902649
   0.50004583 -0.00002277  0.35897598
   0.50006467  0.50007767  0.35899907
   0.33308567  0.16645519  0.58389761
   0.33403010  0.66837240  0.58370953
   0.82943510  0.16423714  0.58335300
   0.83260712  0.66675706  0.58358501
   0.00019546  0.00001359  0.52893981
  -0.00007066  0.49997981  0.52906330
   0.49830139  0.99986277  0.52855752
   0.49966048  0.49973317  0.52890702
   0.33340987  0.16664938  0.41604229
   0.33348360  0.66680202  0.41603368
   0.83313681  0.16651817  0.41603365
   0.83321208  0.66666134  0.41594420
   0.16093353  0.33272220  0.63925294
   0.16518580  0.83292658  0.64078056
   0.66761580  0.33404305  0.64074664
   0.66664345  0.83255209  0.64122530
   0.32848390  0.33168614  0.76767915
   0.35719755  0.33884536  0.72798263
Direct configuration=    12
   0.16673170  0.33336840  0.38731495
   0.16664359  0.83332464  0.38725977
   0.66662240  0.33338089  0.38720755
   0.66662171  0.83324381  0.38719253
   0.99831595  0.99947855  0.61213099
   0.99849584  0.49963932  0.61206568
   0.49874790  0.99976343  0.61240751
   0.49931227  0.50002152  0.61252231
   0.33317731  0.16660046  0.49983186
   0.33328578  0.66689359  0.49979861
   0.83258800  0.16629737  0.49967402
   0.83321283  0.66661888  0.49968719
   0.16645811  0.33331104  0.47089050
   0.16620302  0.83304126  0.47069191
   0.66677541  0.33349849  0.47076558
   0.66663825  0.83331256  0.47081473
  -0.00007974 -0.00003529  0.35903748
  -0.00002264  0.49998569  0.35903896
   0.50004682 -0.00001921  0.35897988
   0.50004365  0.50006460  0.35900561
   0.33306104  0.16646503  0.58388259
   0.33396975  0.66830805  0.58370083
   0.82950525  0.16428585  0.58335310
   0.83254953  0.66674796  0.58355053
   0.00016314  0.00004237  0.52893040
  -0.00009609  0.49993432  0.52905308
   0.49827526  0.99985961  0.52855223
   0.49961314  0.49973187  0.52889895
   0.33340485  0.16666081  0.41605000
   0.33348137  0.66678876  0.41604020
   0.83313971  0.16651836  0.41604071
   0.83319518  0.66665691  0.41594454
   0.16115317  0.33272198  0.63933824
   0.16509428  0.83286536  0.64074108
   0.66759931  0.33405370  0.64071005
   0.66660498  0.83255999  0.64118957
   0.32830700  0.33161309  0.76781516
   0.35782699  0.33906196  0.72800712
Direct configuration=    13
   0.16673206  0.33336816  0.38731504
   0.16664480  0.83332561  0.38726008
   0.66662158  0.33337984  0.38720772
   0.66662142  0.83324425  0.38719275
   0.99831580  0.99947685  0.61213032
   0.99849580  0.49964117  0.61206493
   0.49874987  0.99976357  0.61240853
   0.49931399  0.50002181  0.61252193
   0.33317864  0.16660084  0.49983253
   0.33328664  0.66689336  0.49979927
   0.83258973  0.16629830  0.49967439
   0.83321358  0.66661868  0.49968737
   0.16646035  0.33331126  0.47089097
   0.16620537  0.83304303  0.47069262
   0.66677420  0.33349794  0.47076607
   0.66663814  0.83331183  0.47081509
  -0.00008013 -0.00003617  0.35903709
  -0.00002288  0.49998624  0.35903846
   0.50004678 -0.00001935  0.35897973
   0.50004450  0.50006512  0.35900535
   0.33306202  0.16646464  0.58388320
   0.33397217  0.66831064  0.58370118
   0.82950243  0.16428390  0.58335309
   0.83255184  0.66674833  0.58355192
   0.00016444  0.00004122  0.52893078
  -0.00009507  0.49993615  0.52905349
   0.49827631  0.99985974  0.52855244
   0.49961504  0.49973192  0.52889928
   0.33340505  0.16666035  0.41604969
   0.33348146  0.66678929  0.41603994
   0.83313959  0.16651835  0.41604042
   0.83319586  0.66665709  0.41594453
   0.16114435  0.33272199  0.63933482
   0.16509795  0.83286781  0.64074267
   0.66759997  0.33405327  0.64071152
   0.66660652  0.83255968  0.64119100
   0.32831410  0.33161602  0.76780970
   0.35780172  0.33905326  0.72800614
Direct configuration=    14
   0.16671879  0.33336765  0.38731978
   0.16662885  0.83331283  0.38725829
   0.66663318  0.33338757  0.38721071
   0.66662544  0.83324609  0.38719469
   0.99830755  0.99948748  0.61214426
   0.99849605  0.49961535  0.61208504
   0.49872481  0.99975620  0.61239047
   0.49930076  0.50002621  0.61252286
   0.33314768  0.16660878  0.49983000
   0.33325790  0.66687425  0.49980064
   0.83257568  0.16629530  0.49968589
   0.83318814  0.66661508  0.49969848
   0.16641026  0.33330839  0.47088069
   0.16614401  0.83299928  0.47068489
   0.66680200  0.33351968  0.47076115
   0.66664096  0.83332047  0.47081364
  -0.00006703 -0.00001236  0.35904163
  -0.00001602  0.49997291  0.35904567
   0.50004485 -0.00001530  0.35898066
   0.50002021  0.50004868  0.35900717
   0.33306876  0.16651132  0.58387578
   0.33397152  0.66825516  0.58369353
   0.82953991  0.16429759  0.58334545
   0.83245027  0.66673026  0.58352332
   0.00012706  0.00005846  0.52890426
  -0.00012130  0.49990124  0.52901904
   0.49827846  0.99985558  0.52854003
   0.49957950  0.49973729  0.52888689
   0.33339791  0.16667396  0.41604551
   0.33347397  0.66677064  0.41603548
   0.83314708  0.16652332  0.41603456
   0.83317908  0.66665104  0.41593812
   0.16134324  0.33272946  0.63939552
   0.16506129  0.83285626  0.64071660
   0.66752611  0.33404095  0.64068252
   0.66653841  0.83253965  0.64115982
   0.32819654  0.33156000  0.76786651
   0.35832409  0.33923928  0.72809645
Direct configuration=    15
   0.16667897  0.33336609  0.38733399
   0.16658098  0.83327447  0.38725295
   0.66666798  0.33341078  0.38721968
   0.66663750  0.83325162  0.38720053
   0.99828282  0.99951937  0.61218608
   0.99849680  0.49953787  0.61214536
   0.49864963  0.99973406  0.61233630
   0.49926108  0.50003942  0.61252565
   0.33305480  0.16663262  0.49982242
   0.33317169  0.66681692  0.49980475
   0.83253356  0.16628629  0.49972038
   0.83311182  0.66660426  0.49973181
   0.16625999  0.33329980  0.47084983
   0.16595995  0.83286804  0.47066169
   0.66688543  0.33358489  0.47074638
   0.66664941  0.83334639  0.47080931
  -0.00002771  0.00005907  0.35905527
   0.00000455  0.49993291  0.35906728
   0.50003905 -0.00000313  0.35898344
   0.49994735  0.49999934  0.35901265
   0.33308895  0.16665138  0.58385353
   0.33396956  0.66808873  0.58367056
   0.82965235  0.16433866  0.58332251
   0.83214557  0.66667605  0.58343751
   0.00001492  0.00011021  0.52882471
  -0.00019998  0.49979653  0.52891570
   0.49828492  0.99984311  0.52850279
   0.49947291  0.49975340  0.52884973
   0.33337650  0.16671480  0.41603299
   0.33345151  0.66671467  0.41602213
   0.83316953  0.16653823  0.41601698
   0.83312873  0.66663290  0.41591889
   0.16193991  0.33275188  0.63957764
   0.16495132  0.83282158  0.64063841
   0.66730453  0.33400398  0.64059552
   0.66633407  0.83247955  0.64106629
   0.32784386  0.33139195  0.76803694
   0.35989120  0.33979732  0.72836740
Direct configuration=    16
   0.16659934  0.33336299  0.38736243
   0.16648525  0.83319776  0.38724227
   0.66673757  0.33345719  0.38723763
   0.66666162  0.83326266  0.38721221
   0.99823336  0.99958316  0.61226972
   0.99849830  0.49938292  0.61226602
   0.49849926  0.99968978  0.61222795
   0.49918170  0.50006582  0.61253124
   0.33286904  0.16668030  0.49980724
   0.33299928  0.66670226  0.49981297
   0.83244931  0.16626828  0.49978938
   0.83295919  0.66658262  0.49979848
   0.16595944  0.33328262  0.47078812
   0.16559183  0.83260555  0.47061530
   0.66705227  0.33371531  0.47071685
   0.66666631  0.83339824  0.47080064
   0.00005092  0.00020193  0.35908254
   0.00004570  0.49985292  0.35911050
   0.50002744  0.00002119  0.35898902
   0.49980163  0.49990067  0.35902360
   0.33312934  0.16693149  0.58380902
   0.33396564  0.66775586  0.58362463
   0.82987723  0.16442080  0.58327663
   0.83153615  0.66656763  0.58326590
  -0.00020934  0.00021369  0.52866561
  -0.00035734  0.49958710  0.52870903
   0.49829782  0.99981817  0.52842832
   0.49925971  0.49978562  0.52877541
   0.33333367  0.16679648  0.41600793
   0.33340660  0.66660275  0.41599542
   0.83321443  0.16656805  0.41598181
   0.83302803  0.66659661  0.41588043
   0.16313324  0.33279672  0.63994187
   0.16473137  0.83275222  0.64048203
   0.66686137  0.33393005  0.64042152
   0.66592540  0.83235936  0.64087922
   0.32713849  0.33105583  0.76837779
   0.36302542  0.34091340  0.72890930
Direct configuration=    17
   0.16657552  0.33334565  0.38736370
   0.16649000  0.83321136  0.38724321
   0.66671589  0.33342570  0.38724691
   0.66665003  0.83328481  0.38722147
   0.99822080  0.99955538  0.61222546
   0.99849514  0.49936774  0.61222782
   0.49848729  0.99967607  0.61215208
   0.49917637  0.50005254  0.61247947
   0.33280219  0.16674153  0.49975587
   0.33291027  0.66659364  0.49976678
   0.83248424  0.16631272  0.49974937
   0.83286547  0.66654808  0.49976713
   0.16592199  0.33327985  0.47079357
   0.16552840  0.83258756  0.47063914
   0.66700273  0.33372477  0.47074054
   0.66661625  0.83337439  0.47082462
   0.00006899  0.00021353  0.35907867
   0.00005296  0.49985679  0.35910930
   0.50000255  0.00001797  0.35898754
   0.49977378  0.49988024  0.35901711
   0.33307219  0.16697433  0.58381461
   0.33386575  0.66759679  0.58364113
   0.83004117  0.16451547  0.58331272
   0.83143046  0.66654537  0.58327405
  -0.00022133  0.00026236  0.52864122
  -0.00038583  0.49956455  0.52868516
   0.49829490  0.99980132  0.52843138
   0.49912687  0.49973950  0.52875257
   0.33332253  0.16679893  0.41600650
   0.33340360  0.66660288  0.41598548
   0.83318670  0.16655308  0.41596215
   0.83298695  0.66659125  0.41586140
   0.16331502  0.33279590  0.64002504
   0.16467333  0.83272534  0.64045690
   0.66676538  0.33386819  0.64038528
   0.66580810  0.83238830  0.64083879
   0.32692030  0.33093344  0.76843315
   0.36421903  0.34135868  0.72921866
Direct configuration=    18
   0.16657551  0.33334565  0.38736370
   0.16649000  0.83321136  0.38724321
   0.66671589  0.33342569  0.38724691
   0.66665003  0.83328481  0.38722147
   0.99822080  0.99955538  0.61222545
   0.99849514  0.49936773  0.61222782
   0.49848729  0.99967607  0.61215207
   0.49917637  0.50005254  0.61247947
   0.33280218  0.16674154  0.49975587
   0.33291026  0.66659363  0.49976678
   0.83248425  0.16631273  0.49974937
   0.83286546  0.66654807  0.49976712
   0.16592199  0.33327985  0.47079357
   0.16552839  0.83258756  0.47063914
   0.66700272  0.33372477  0.47074055
   0.66661625  0.83337438  0.47082462
   0.00006899  0.00021353  0.35907867
   0.00005296  0.49985680  0.35910930
   0.50000254  0.00001797  0.35898754
   0.49977377  0.49988024  0.35901711
   0.33307218  0.16697434  0.58381461
   0.33386574  0.66759677  0.58364114
   0.83004119  0.16451548  0.58331272
   0.83143044  0.66654537  0.58327405
  -0.00022133  0.00026236  0.52864122
  -0.00038583  0.49956454  0.52868516
   0.49829490  0.99980132  0.52843138
   0.49912685  0.49973949  0.52875256
   0.33332253  0.16679893  0.41600650
   0.33340360  0.66660288  0.41598548
   0.83318669  0.16655308  0.41596215
   0.83298694  0.66659125  0.41586140
   0.16331505  0.33279590  0.64002505
   0.16467333  0.83272533  0.64045690
   0.66676537  0.33386819  0.64038527
   0.66580808  0.83238830  0.64083878
   0.32692027  0.33093342  0.76843316
   0.36421920  0.34135874  0.72921870
Direct configuration=    19
   0.16656815  0.33333854  0.38736193
   0.16649459  0.83321961  0.38724377
   0.66670296  0.33341073  0.38724973
   0.66664300  0.83329298  0.38722468
   0.99821882  0.99954267  0.61220329
   0.99849450  0.49936611  0.61220680
   0.49848674  0.99967119  0.61212322
   0.49917300  0.50004306  0.61245739
   0.33277854  0.16676452  0.49973525
   0.33287656  0.66655139  0.49974735
   0.83250121  0.16633213  0.49973022
   0.83282933  0.66653430  0.49975158
   0.16591585  0.33327889  0.47079764
   0.16551354  0.83258999  0.47065131
   0.66697206  0.33372334  0.47075197
   0.66659174  0.83336128  0.47083531
   0.00007418  0.00021300  0.35907573
   0.00005436  0.49986200  0.35910699
   0.49999069  0.00001539  0.35898670
   0.49976628  0.49987441  0.35901367
   0.33304179  0.16698133  0.58381740
   0.33381652  0.66753501  0.58364908
   0.83011025  0.16455772  0.58332988
   0.83140701  0.66653970  0.58328335
  -0.00021880  0.00028061  0.52863517
  -0.00039383  0.49956213  0.52868140
   0.49829339  0.99979455  0.52843485
   0.49907294  0.49971642  0.52874341
   0.33331870  0.16679633  0.41600643
   0.33340363  0.66660784  0.41598152
   0.83317094  0.16654455  0.41595417
   0.83297147  0.66659014  0.41585375
   0.16335013  0.33279292  0.64004892
   0.16465451  0.83271518  0.64045075
   0.66673916  0.33384150  0.64037470
   0.66577006  0.83240801  0.64082674
   0.32679871  0.33087563  0.76849398
   0.36471330  0.34154092  0.72929598
Direct configuration=    20
   0.16654607  0.33331720  0.38735663
   0.16650833  0.83324436  0.38724545
   0.66666416  0.33336584  0.38725819
   0.66662192  0.83331747  0.38723428
   0.99821287  0.99950455  0.61213680
   0.99849261  0.49936124  0.61214377
   0.49848510  0.99965656  0.61203666
   0.49916290  0.50001462  0.61239116
   0.33270763  0.16683347  0.49967340
   0.33277546  0.66642467  0.49968907
   0.83255210  0.16639035  0.49967280
   0.83272092  0.66649296  0.49970495
   0.16589743  0.33327602  0.47080982
   0.16546900  0.83259727  0.47068780
   0.66688009  0.33371905  0.47078626
   0.66651823  0.83332195  0.47086737
   0.00008976  0.00021139  0.35906690
   0.00005857  0.49987761  0.35910005
   0.49995513  0.00000764  0.35898416
   0.49974380  0.49985695  0.35900333
   0.33295061  0.16700231  0.58382577
   0.33366889  0.66734972  0.58367290
   0.83031745  0.16468443  0.58338137
   0.83133672  0.66652270  0.58331125
  -0.00021119  0.00033535  0.52861703
  -0.00041784  0.49955488  0.52867011
   0.49828888  0.99977425  0.52844526
   0.49891123  0.49964720  0.52871596
   0.33330720  0.16678853  0.41600621
   0.33340371  0.66662269  0.41596965
   0.83312368  0.16651896  0.41593024
   0.83292505  0.66658679  0.41583079
   0.16345537  0.33278399  0.64012052
   0.16459807  0.83268471  0.64043229
   0.66666053  0.33376144  0.64034298
   0.66565598  0.83246715  0.64079061
   0.32643401  0.33070227  0.76867646
   0.36619559  0.34208747  0.72952780
Direct configuration=    21
   0.16650190  0.33327453  0.38734601
   0.16653581  0.83329385  0.38724880
   0.66658657  0.33327606  0.38727511
   0.66657976  0.83336647  0.38725349
   0.99820097  0.99942832  0.61200381
   0.99848881  0.49935150  0.61201770
   0.49848181  0.99962730  0.61186353
   0.49914270  0.49995773  0.61225869