CeO2                                    
           1
     7.707464    0.000000    0.000000
    -3.853732    6.674860    0.000000
     0.000000    0.000000   28.319031
   Ce   O    C    O 
  12  24   1   1
Direct configuration=     1
   0.16666700  0.33333300  0.38888900
   0.16666700  0.83333300  0.38888900
   0.66666700  0.33333300  0.38888900
   0.66666700  0.83333300  0.38888900
   0.00000000  0.00000000  0.61111100
   0.00000000  0.50000000  0.61111100
   0.50000000  0.00000000  0.61111100
   0.50000000  0.50000000  0.61111100
   0.33333300  0.16666700  0.50000000
   0.33333300  0.66666700  0.50000000
   0.83333300  0.16666700  0.50000000
   0.83333300  0.66666700  0.50000000
   0.16666700  0.33333300  0.47222200
   0.16666700  0.83333300  0.47222200
   0.66666700  0.33333300  0.47222200
   0.66666700  0.83333300  0.47222200
   0.00000000  0.00000000  0.36111100
   0.00000000  0.50000000  0.36111100
   0.50000000  0.00000000  0.36111100
   0.50000000  0.50000000  0.36111100
   0.33333300  0.16666700  0.58333300
   0.33333300  0.66666700  0.58333300
   0.83333300  0.16666700  0.58333300
   0.83333300  0.66666700  0.58333300
   0.00000000  0.00000000  0.52777800
   0.00000000  0.50000000  0.52777800
   0.50000000  0.00000000  0.52777800
   0.50000000  0.50000000  0.52777800
   0.33333300  0.16666700  0.41666700
   0.33333300  0.66666700  0.41666700
   0.83333300  0.16666700  0.41666700
   0.83333300  0.66666700  0.41666700
   0.16666700  0.33333300  0.63888900
   0.16666700  0.83333300  0.63888900
   0.66666700  0.33333300  0.63888900
   0.66666700  0.83333300  0.63888900
   0.50000000  0.50000000  0.72389500
   0.35183200  0.50000000  0.72389500
Direct configuration=     2
   0.16666768  0.33333324  0.38861730
   0.16666570  0.83333292  0.38861774
   0.66666567  0.33333434  0.38861739
   0.66666654  0.83333157  0.38861713
   0.00009990  0.00015341  0.61134527
  -0.00011839  0.49986656  0.61141138
   0.50001807  0.00019148  0.61134382
   0.50029468  0.49989135  0.61109489
   0.33332519  0.16666179  0.50001692
   0.33331940  0.66666525  0.50001060
   0.83334085  0.16667379  0.50001525
   0.83334581  0.66667040  0.50001433
   0.16668018  0.33333985  0.47179267
   0.16667758  0.83333939  0.47179314
   0.66665426  0.33332901  0.47179090
   0.66665432  0.83332470  0.47179203
  -0.00000158 -0.00000283  0.36089927
  -0.00000338  0.50000092  0.36089945
   0.49999989  0.00000141  0.36089966
   0.50000349  0.50000072  0.36089979
   0.33333691  0.16663506  0.58311054
   0.33336393  0.66672530  0.58311754
   0.83326169  0.16659785  0.58311445
   0.83334300  0.66670185  0.58310849
   0.00000638 -0.00000239  0.52819993
   0.00001268  0.50001241  0.52819655
   0.49998580 -0.00001237  0.52819970
   0.49999876  0.49999869  0.52819162
   0.33333575  0.16666638  0.41688299
   0.33333430  0.66666939  0.41688338
   0.83332939  0.16666610  0.41687995
   0.83333189  0.66666534  0.41688026
   0.16557986  0.33230143  0.63866603
   0.16677625  0.83344703  0.63910418
   0.66659677  0.33289444  0.63895116
   0.66670629  0.83350115  0.63910952
   0.50144102  0.50056663  0.72424485
   0.35113552  0.50052645  0.72445992
Direct configuration=     3
   0.16666773  0.33333326  0.38859690
   0.16666560  0.83333292  0.38859738
   0.66666557  0.33333444  0.38859700
   0.66666650  0.83333146  0.38859672
   0.00010740  0.00016493  0.61136286
  -0.00012728  0.49985655  0.61143393
   0.50001942  0.00020586  0.61136129
   0.50031680  0.49988319  0.61109368
   0.33332460  0.16666140  0.50001819
   0.33331837  0.66666512  0.50001140
   0.83334144  0.16667430  0.50001640
   0.83334678  0.66667066  0.50001540
   0.16668117  0.33334036  0.47176044
   0.16667837  0.83333987  0.47176095
   0.66665330  0.33332871  0.47175853
   0.66665337  0.83332408  0.47175975
  -0.00000170 -0.00000305  0.36088338
  -0.00000364  0.50000099  0.36088357
   0.49999988  0.00000151  0.36088380
   0.50000375  0.50000078  0.36088393
   0.33333720  0.16663267  0.58309384
   0.33336625  0.66672967  0.58310136
   0.83325633  0.16659265  0.58309805
   0.83334375  0.66670446  0.58309163
   0.00000686 -0.00000257  0.52823160
   0.00001363  0.50001334  0.52822797
   0.49998473 -0.00001330  0.52823136
   0.49999867  0.49999860  0.52822267
   0.33333596  0.16666633  0.41689921
   0.33333440  0.66666957  0.41689962
   0.83332912  0.16666603  0.41689594
   0.83333181  0.66666521  0.41689627
   0.16549824  0.33222399  0.63864929
   0.16678445  0.83345559  0.63912033
   0.66659150  0.33286152  0.63895583
   0.66670924  0.83351377  0.63912608
   0.50154920  0.50060916  0.72427111
   0.35108323  0.50056597  0.72450234
Direct configuration=     4
   0.16666766  0.33333314  0.38855124
   0.16666542  0.83333300  0.38855182
   0.66666532  0.33333447  0.38855133
   0.66666648  0.83333142  0.38855101
   0.00011926  0.00018929  0.61140268
  -0.00014398  0.49983371  0.61148415
   0.50002206  0.00023142  0.61140087
   0.50036728  0.49987003  0.61108880
   0.33332097  0.16665588  0.50001979
   0.33331355  0.66666700  0.50001281
   0.83334265  0.16667553  0.50001899
   0.83335378  0.66667352  0.50001658
   0.16668399  0.33334164  0.47168391
   0.16667975  0.83334094  0.47168446
   0.66665088  0.33332859  0.47168181
   0.66665120  0.83332194  0.47168321
  -0.00000193 -0.00000346  0.36084269
  -0.00000410  0.50000117  0.36084291
   0.49999975  0.00000165  0.36084316
   0.50000418  0.50000087  0.36084333
   0.33334155  0.16662857  0.58305712
   0.33337257  0.66673894  0.58306672
   0.83323882  0.16657911  0.58306157
   0.83334341  0.66670747  0.58305520
   0.00000815 -0.00000344  0.52830621
   0.00001516  0.50001573  0.52830262
   0.49998191 -0.00001501  0.52830601
   0.49999960  0.49999822  0.52829587
   0.33333624  0.16666620  0.41693346
   0.33333449  0.66666985  0.41693389
   0.83332864  0.16666590  0.41692966
   0.83333168  0.66666501  0.41693015
   0.16530262  0.33203792  0.63861022
   0.16680381  0.83347506  0.63916144
   0.66657807  0.33278424  0.63896913
   0.66671502  0.83354029  0.63916769
   0.50146973  0.50071914  0.72433882
   0.35130639  0.50066505  0.72460869
Direct configuration=     5
   0.16666745  0.33333278  0.38841425
   0.16666487  0.83333325  0.38841514
   0.66666458  0.33333458  0.38841433
   0.66666640  0.83333131  0.38841389
   0.00015484  0.00026237  0.61152213
  -0.00019408  0.49976519  0.61163482
   0.50002996  0.00030809  0.61151960
   0.50051870  0.49983054  0.61107415
   0.33331006  0.16663931  0.50002459
   0.33329910  0.66667261  0.50001706
   0.83334627  0.16667923  0.50002676
   0.83337481  0.66668210  0.50002010
   0.16669246  0.33334548  0.47145433
   0.16668388  0.83334416  0.47145500
   0.66664361  0.33332825  0.47145164
   0.66664467  0.83331553  0.47145358
  -0.00000261 -0.00000471  0.36072063
  -0.00000550  0.50000170  0.36072093
   0.49999937  0.00000208  0.36072127
   0.50000546  0.50000115  0.36072151
   0.33335459  0.16661630  0.58294694
   0.33339151  0.66676675  0.58296277
   0.83318628  0.16653846  0.58295215
   0.83334238  0.66671650  0.58294590
   0.00001200 -0.00000606  0.52853006
   0.00001975  0.50002288  0.52852658
   0.49997345 -0.00002016  0.52852993
   0.50000241  0.49999707  0.52851546
   0.33333706  0.16666583  0.41703623
   0.33333477  0.66667068  0.41703669
   0.83332721  0.16666552  0.41703083
   0.83333129  0.66666439  0.41703177
   0.16471575  0.33147972  0.63849302
   0.16686191  0.83353348  0.63928476
   0.66653777  0.33255240  0.63900901
   0.66673236  0.83361986  0.63929252
   0.50123130  0.50104906  0.72454193
   0.35197589  0.50096230  0.72492775
Direct configuration=     6
   0.16666703  0.33333206  0.38814026
   0.16666377  0.83333376  0.38814179
   0.66666311  0.33333478  0.38814033
   0.66666625  0.83333109  0.38813963
   0.00022602  0.00040853  0.61176104
  -0.00029427  0.49962816  0.61193616
   0.50004576  0.00046144  0.61175705
   0.50082155  0.49975156  0.61104486
   0.33328825  0.16660618  0.50003419
   0.33327018  0.66668384  0.50002556
   0.83335352  0.16668662  0.50004230
   0.83341685  0.66669927  0.50002715
   0.16670941  0.33335315  0.47099516
   0.16669214  0.83335060  0.47099609
   0.66662908  0.33332758  0.47099129
   0.66663163  0.83330270  0.47099432
  -0.00000397 -0.00000720  0.36047651
  -0.00000829  0.50000276  0.36047697
   0.49999862  0.00000292  0.36047747
   0.50000801  0.50000171  0.36047788
   0.33338067  0.16659174  0.58272660
   0.33342938  0.66682238  0.58275489
   0.83308121  0.16645718  0.58273332
   0.83334034  0.66673455  0.58272729
   0.00001971 -0.00001130  0.52897774
   0.00002893  0.50003720  0.52897449
   0.49995653 -0.00003045  0.52897778
   0.50000802  0.49999479  0.52895464
   0.33333871  0.16666507  0.41724176
   0.33333532  0.66667233  0.41724231
   0.83332435  0.16666476  0.41723317
   0.83333052  0.66666315  0.41723501
   0.16354200  0.33036332  0.63825861
   0.16697809  0.83365031  0.63953141
   0.66645716  0.33208872  0.63908877
   0.66676705  0.83377901  0.63954218
   0.50075445  0.50170890  0.72494815
   0.35331489  0.50155680  0.72556587
Direct configuration=     7
   0.16666725  0.33333243  0.38828192
   0.16666434  0.83333350  0.38828313
   0.66666387  0.33333468  0.38828200
   0.66666633  0.83333121  0.38828143
   0.00018922  0.00033296  0.61163751
  -0.00024247  0.49969901  0.61178036
   0.50003759  0.00038215  0.61163428
   0.50066497  0.49979240  0.61106000
   0.33329953  0.16662331  0.50002922
   0.33328513  0.66667804  0.50002116
   0.83334977  0.16668280  0.50003427
   0.83339511  0.66669040  0.50002351
   0.16670065  0.33334918  0.47123257
   0.16668787  0.83334727  0.47123337
   0.66663659  0.33332793  0.47122931
   0.66663837  0.83330933  0.47123178
  -0.00000326 -0.00000591  0.36060273
  -0.00000685  0.50000221  0.36060311
   0.49999901  0.00000248  0.36060352
   0.50000669  0.50000142  0.36060385
   0.33336719  0.16660444  0.58284053
   0.33340980  0.66679362  0.58286238
   0.83313554  0.16649921  0.58284647
   0.83334140  0.66672522  0.58284032
   0.00001573 -0.00000859  0.52874626
   0.00002418  0.50002980  0.52874290
   0.49996528 -0.00002513  0.52874622
   0.50000512  0.49999597  0.52872757
   0.33333786  0.16666546  0.41713549
   0.33333503  0.66667147  0.41713600
   0.83332583  0.16666516  0.41712855
   0.83333092  0.66666379  0.41712993
   0.16414888  0.33094055  0.63837981
   0.16691802  0.83358991  0.63940388
   0.66649884  0.33232846  0.63904753
   0.66674911  0.83369672  0.63941309
   0.50100101  0.50136773  0.72473812
   0.35262257  0.50124942  0.72523593
Direct configuration=     8
   0.16666723  0.33333240  0.38827149
   0.16666430  0.83333352  0.38827272
   0.66666382  0.33333468  0.38827157
   0.66666632  0.83333120  0.38827099
   0.00019193  0.00033852  0.61164661
  -0.00024628  0.49969379  0.61179183
   0.50003819  0.00038799  0.61164332
   0.50067650  0.49978939  0.61105889
   0.33329870  0.16662205  0.50002959
   0.33328403  0.66667846  0.50002149
   0.83335005  0.16668308  0.50003486
   0.83339671  0.66669105  0.50002377
   0.16670129  0.33334948  0.47121509
   0.16668819  0.83334752  0.47121589
   0.66663604  0.33332790  0.47121178
   0.66663788  0.83330884  0.47121429
  -0.00000332 -0.00000601  0.36059343
  -0.00000695  0.50000225  0.36059382
   0.49999898  0.00000252  0.36059424
   0.50000679  0.50000144  0.36059457
   0.33336818  0.16660350  0.58283214
   0.33341124  0.66679574  0.58285446
   0.83313153  0.16649611  0.58283813
   0.83334132  0.66672590  0.58283199
   0.00001602 -0.00000879  0.52876331
   0.00002453  0.50003034  0.52875995
   0.49996464 -0.00002552  0.52876327
   0.50000533  0.49999588  0.52874429
   0.33333792  0.16666543  0.41714332
   0.33333505  0.66667154  0.41714383
   0.83332572  0.16666513  0.41713626
   0.83333089  0.66666375  0.41713767
   0.16410419  0.33089803  0.63837088
   0.16692244  0.83359435  0.63941327
   0.66649577  0.33231081  0.63905057
   0.66675043  0.83370278  0.63942260
   0.50098285  0.50139286  0.72475359
   0.35267356  0.50127206  0.72526023
Direct configuration=     9
   0.16666724  0.33333242  0.38827738
   0.16666432  0.83333351  0.38827859
   0.66666385  0.33333468  0.38827746
   0.66666632  0.83333120  0.38827688
   0.00019040  0.00033538  0.61164148
  -0.00024413  0.49969674  0.61178536
   0.50003785  0.00038470  0.61163822
   0.50066999  0.49979109  0.61105952
   0.33329917  0.16662276  0.50002938
   0.33328465  0.66667822  0.50002131
   0.83334989  0.16668292  0.50003452
   0.83339581  0.66669068  0.50002362
   0.16670093  0.33334931  0.47122495
   0.16668801  0.83334738  0.47122575
   0.66663635  0.33332792  0.47122167
   0.66663816  0.83330912  0.47122416
  -0.00000329 -0.00000595  0.36059868
  -0.00000689  0.50000223  0.36059906
   0.49999900  0.00000250  0.36059948
   0.50000673  0.50000143  0.36059980
   0.33336762  0.16660403  0.58283687
   0.33341043  0.66679454  0.58285892
   0.83313379  0.16649786  0.58284283
   0.83334136  0.66672551  0.58283669
   0.00001585 -0.00000868  0.52875369
   0.00002433  0.50003003  0.52875033
   0.49996500 -0.00002530  0.52875365
   0.50000521  0.49999593  0.52873486
   0.33333789  0.16666545  0.41713890
   0.33333504  0.66667150  0.41713941
   0.83332578  0.16666514  0.41713191
   0.83333091  0.66666377  0.41713330
   0.16412940  0.33092202  0.63837592
   0.16691995  0.83359184  0.63940798
   0.66649750  0.33232077  0.63904886
   0.66674969  0.83369937  0.63941724
   0.50099309  0.50137868  0.72474486
   0.35264479  0.50125929  0.72524652
Direct configuration=    10
   0.16666646  0.33333201  0.38827785
   0.16666463  0.83333380  0.38827882
   0.66666389  0.33333393  0.38827787
   0.66666645  0.83333213  0.38827740
   0.00016459  0.00032347  0.61164191
  -0.00023912  0.49969177  0.61178179
   0.50004064  0.00036113  0.61163931
   0.50068182  0.49981145  0.61105084
   0.33329021  0.16660408  0.50002468
   0.33327449  0.66668709  0.50001997
   0.83334921  0.16668348  0.50003520
   0.83341542  0.66669963  0.50001876
   0.16670425  0.33335052  0.47121375
   0.16668684  0.83334737  0.47121411
   0.66663489  0.33333043  0.47121072
   0.66663731  0.83330541  0.47121313
  -0.00000307 -0.00000588  0.36057895
  -0.00000652  0.50000252  0.36057934
   0.49999853  0.00000219  0.36057972
   0.50000635  0.50000139  0.36058008
   0.33338375  0.16661080  0.58284314
   0.33341449  0.66678952  0.58286934
   0.83310987  0.16648972  0.58284751
   0.83333172  0.66671189  0.58284610
   0.00001757 -0.00001031  0.52876249
   0.00002266  0.50003178  0.52876218
   0.49996199 -0.00002447  0.52876240
   0.50000955  0.49999513  0.52874337
   0.33333721  0.16666508  0.41712596
   0.33333446  0.66667135  0.41712634
   0.83332622  0.16666532  0.41711879
   0.83333148  0.66666418  0.41712059
   0.16409267  0.33088619  0.63837430
   0.16692211  0.83359004  0.63942784
   0.66649511  0.33231034  0.63905930
   0.66674480  0.83369126  0.63943443
   0.50102844  0.50143202  0.72477578
   0.35267066  0.50130223  0.72529595
Direct configuration=    11
   0.16666412  0.33333077  0.38827928
   0.16666554  0.83333469  0.38827950
   0.66666400  0.33333169  0.38827910
   0.66666681  0.83333489  0.38827895
   0.00008715  0.00028771  0.61164321
  -0.00022408  0.49967688  0.61177110
   0.50004900  0.00029044  0.61164258
   0.50071730  0.49987255  0.61102482
   0.33326333  0.16654805  0.50001056
   0.33324400  0.66671367  0.50001595
   0.83334715  0.16668517  0.50003722
   0.83347425  0.66672646  0.50000418
   0.16671423  0.33335416  0.47118013
   0.16668332  0.83334734  0.47117917
   0.66663050  0.33333799  0.47117787
   0.66663476  0.83329429  0.47118006
  -0.00000241 -0.00000564  0.36051978
  -0.00000541  0.50000341  0.36052018
   0.49999711  0.00000127  0.36052047
   0.50000519  0.50000127  0.36052092
   0.33343215  0.16663112  0.58286197
   0.33342667  0.66677446  0.58290057
   0.83303810  0.16646529  0.58286153
   0.83330279  0.66667103  0.58287432
   0.00002274 -0.00001522  0.52878888
   0.00001764  0.50003701  0.52879771
   0.49995296 -0.00002200  0.52878865
   0.50002257  0.49999274  0.52876890
   0.33333519  0.16666397  0.41708711
   0.33333273  0.66667090  0.41708713
   0.83332753  0.16666583  0.41707941
   0.83333321  0.66666539  0.41708247
   0.16398247  0.33077872  0.63836945
   0.16692858  0.83358461  0.63948744
   0.66648795  0.33227904  0.63909064
   0.66673015  0.83366695  0.63948599
   0.50113448  0.50159202  0.72486856
   0.35274825  0.50143105  0.72544424
Direct configuration=    12
   0.16665945  0.33332831  0.38828214
   0.16666737  0.83333646  0.38828087
   0.66666423  0.33332720  0.38828156
   0.66666755  0.83334042  0.38828204
  -0.00006771  0.00021621  0.61164580
  -0.00019402  0.49964711  0.61174971
   0.50006571  0.00014906  0.61164913
   0.50078825  0.49999474  0.61097277
   0.33320957  0.16643598  0.49998233
   0.33318301  0.66676685  0.50000791
   0.83334304  0.16668856  0.50004127
   0.83359191  0.66678013  0.49997502
   0.16673418  0.33336145  0.47111290
   0.16667630  0.83334728  0.47110930
   0.66662172  0.33335309  0.47111217
   0.66662966  0.83327203  0.47111391
  -0.00000109 -0.00000517  0.36040144
  -0.00000319  0.50000519  0.36040186
   0.49999427 -0.00000058  0.36040197
   0.50000287  0.50000103  0.36040260
   0.33352893  0.16667176  0.58289961
   0.33345103  0.66674434  0.58296304
   0.83289456  0.16641643  0.58288957
   0.83324493  0.66658931  0.58293076
   0.00003306 -0.00002505  0.52884167
   0.00000760  0.50004748  0.52886878
   0.49993489 -0.00001705  0.52884115
   0.50004860  0.49998795  0.52881996
   0.33333113  0.16666175  0.41700943
   0.33332927  0.66666999  0.41700870
   0.83333015  0.16666686  0.41700067
   0.83333668  0.66666782  0.41700621
   0.16376208  0.33056378  0.63835975
   0.16694153  0.83357376  0.63960663
   0.66647363  0.33221645  0.63915332
   0.66670085  0.83361833  0.63958912
   0.50134656  0.50191203  0.72505412
   0.35290344  0.50168871  0.72574081
Direct configuration=    13
   0.16665011  0.33332337  0.38828786
   0.16667103  0.83334001  0.38828360
   0.66666469  0.33331823  0.38828650
   0.66666902  0.83335148  0.38828824
  -0.00037745  0.00007320  0.61165098
  -0.00013388  0.49958755  0.61170694
   0.50009914 -0.00013370  0.61166223
   0.50093016  0.50023913  0.61086867
   0.33310206  0.16621185  0.49992587
   0.33306105  0.66687321  0.49999184
   0.83333481  0.16669532  0.50004938
   0.83382722  0.66688747  0.49991669
   0.16677408  0.33337601  0.47097843
   0.16666224  0.83334715  0.47096956
   0.66660416  0.33338330  0.47098077
   0.66661946  0.83322753  0.47098161
   0.00000155 -0.00000422  0.36016475
   0.00000124  0.50000876  0.36016522
   0.49998859 -0.00000428  0.36016495
   0.49999823  0.50000054  0.36016595
   0.33372251  0.16675303  0.58297491
   0.33349976  0.66668409  0.58308797
   0.83260749  0.16631871  0.58294566
   0.83312921  0.66642586  0.58304365
   0.00005371 -0.00004469  0.52894723
  -0.00001248  0.50006842  0.52901091
   0.49989876 -0.00000716  0.52894614
   0.50010067  0.49997838  0.52892209
   0.33332303  0.16665731  0.41685405
   0.33332234  0.66666817  0.41685186
   0.83333540  0.16666892  0.41684318
   0.83334360  0.66667269  0.41685371
   0.16332129  0.33013389  0.63834034
   0.16696742  0.83355207  0.63984501
   0.66644498  0.33209128  0.63927869
   0.66664224  0.83352109  0.63979538
   0.50177072  0.50255204  0.72542524
   0.35321381  0.50220401  0.72633394
Direct configuration=    14
   0.16663142  0.33331349  0.38829931
   0.16667836  0.83334709  0.38828906
   0.66666560  0.33330028  0.38829636
   0.66667196  0.83337361  0.38830063
  -0.00099692 -0.00021282  0.61166135
  -0.00001360  0.49946843  0.61162139
   0.50016599 -0.00069923  0.61168843
   0.50121398  0.50072791  0.61066048
   0.33288704  0.16576357  0.49981295
   0.33281712  0.66708592  0.49995969
   0.83331836  0.16670885  0.50006558
   0.83429786  0.66710215  0.49980004
   0.16685387  0.33340513  0.47070949
   0.16663414  0.83334690  0.47069007
   0.66656903  0.33344371  0.47071798
   0.66659907  0.83313853  0.47071702
   0.00000682 -0.00000234  0.35969137
   0.00001012  0.50001588  0.35969193
   0.49997723 -0.00001167  0.35969093
   0.49998897  0.49999958  0.35969266
   0.33410965  0.16691558  0.58312549
   0.33359721  0.66656360  0.58333784
   0.83203335  0.16612327  0.58305783
   0.83289777  0.66609897  0.58326942
   0.00009500 -0.00008398  0.52915836
  -0.00005264  0.50011030  0.52929519
   0.49982650  0.00001264  0.52915613
   0.50020481  0.49995922  0.52912634
   0.33330683  0.16664844  0.41654330
   0.33330848  0.66666454  0.41653817
   0.83334589  0.16667304  0.41652820
   0.83335745  0.66668242  0.41654871
   0.16243972  0.32927411  0.63830153
   0.16701922  0.83350867  0.64032178
   0.66638768  0.33184092  0.63952941
   0.66652503  0.83332662  0.64020789
   0.50261905  0.50383206  0.72616746
   0.35383457  0.50323461  0.72752022
Direct configuration=    15
   0.16664452  0.33332042  0.38829129
   0.16667322  0.83334213  0.38828523
   0.66666496  0.33331286  0.38828945
   0.66666990  0.83335810  0.38829194
  -0.00056268 -0.00001232  0.61165408
  -0.00009791  0.49955193  0.61168136
   0.50011913 -0.00030280  0.61167007
   0.50101503  0.50038528  0.61080642
   0.33303777  0.16607781  0.49989211
   0.33298811  0.66693681  0.49998223
   0.83332989  0.16669936  0.50005422
   0.83396795  0.66695166  0.49988181
   0.16679794  0.33338471  0.47089801
   0.16665384  0.83334708  0.47088599
   0.66659366  0.33340136  0.47090220
   0.66661336  0.83320092  0.47090250
   0.00000312 -0.00000366  0.36002321
   0.00000390  0.50001089  0.36002370
   0.49998519 -0.00000649  0.36002322
   0.49999546  0.50000025  0.36002443
   0.33383827  0.16680164  0.58301993
   0.33352890  0.66664806  0.58316268
   0.83243582  0.16626027  0.58297920
   0.83306001  0.66632812  0.58311115
   0.00006605 -0.00005644  0.52901036
  -0.00002449  0.50008094  0.52909591
   0.49987715 -0.00000124  0.52900893
   0.50013181  0.49997265  0.52898316
   0.33331819  0.16665466  0.41676113
   0.33331820  0.66666709  0.41675806
   0.83333853  0.16667015  0.41674900
   0.83334774  0.66667560  0.41676252
   0.16305770  0.32987681  0.63832873
   0.16698291  0.83353909  0.63998757
   0.66642785  0.33201642  0.63935365
   0.66660720  0.83346294  0.63991872
   0.50202438  0.50293477  0.72564717
   0.35339942  0.50251216  0.72668865
Direct configuration=    16
   0.16664018  0.33332182  0.38824593
   0.16667633  0.83334059  0.38823012
   0.66666744  0.33330879  0.38824338
   0.66666780  0.83336273  0.38824712
  -0.00059404 -0.00005484  0.61168679
  -0.00012317  0.49952641  0.61170814
   0.50009150 -0.00033434  0.61171299
   0.50102814  0.50036345  0.61082315
   0.33303997  0.16607307  0.49988832
   0.33299584  0.66694412  0.49997442
   0.83331585  0.16668731  0.50005128
   0.83396965  0.66695677  0.49986701
   0.16680005  0.33339477  0.47089983
   0.16664622  0.83333446  0.47088381
   0.66660249  0.33341181  0.47090251
   0.66661010  0.83319278  0.47090443
   0.00000532 -0.00000586  0.35996344
   0.00000555  0.50001539  0.35996390
   0.49998046 -0.00000825  0.35996323
   0.49999535  0.49999998  0.35996501
   0.33387994  0.16679930  0.58303481
   0.33354828  0.66663734  0.58319203
   0.83233000  0.16619781  0.58298658
   0.83303977  0.66629994  0.58313739
   0.00006005 -0.00007578  0.52899847
  -0.00001370  0.50009984  0.52909178
   0.49985062 -0.00003157  0.52899213
   0.50015171  0.49999242  0.52896229
   0.33331177  0.16664271  0.41671644
   0.33331113  0.66667278  0.41671628
   0.83333882  0.16667086  0.41670652
   0.83336017  0.66668151  0.41671995
   0.16296234  0.32979062  0.63833141
   0.16697812  0.83351374  0.64004534
   0.66643699  0.33199696  0.63938462
   0.66659203  0.83342618  0.63997039
   0.50209888  0.50316416  0.72577864
   0.35357404  0.50269024  0.72690012
Direct configuration=    17
   0.16662715  0.33332604  0.38810988
   0.16668564  0.83333600  0.38806480
   0.66667489  0.33329656  0.38810519
   0.66666151  0.83337661  0.38811264
  -0.00068811 -0.00018237  0.61178489
  -0.00019895  0.49944985  0.61178848
   0.50000860 -0.00042894  0.61184175
   0.50106746  0.50029798  0.61087334
   0.33304657  0.16605885  0.49987697
   0.33301904  0.66696603  0.49995100
   0.83327372  0.16665113  0.50004246
   0.83397475  0.66697209  0.49982262
   0.16680640  0.33342492  0.47090528
   0.16662338  0.83329659  0.47087729
   0.66662901  0.33344316  0.47090344
   0.66660029  0.83316838  0.47091024
   0.00001193 -0.00001247  0.35978414
   0.00001051  0.50002888  0.35978448
   0.49996627 -0.00001352  0.35978328
   0.49999499  0.49999915  0.35978675
   0.33400496  0.16679228  0.58307944
   0.33360641  0.66660516  0.58328008
   0.83201256  0.16601044  0.58300870
   0.83297904  0.66621538  0.58321608
   0.00004205 -0.00013383  0.52896279
   0.00001865  0.50015655  0.52907936
   0.49977103 -0.00012257  0.52894173
   0.50021142  0.50005174  0.52889969
   0.33329250  0.16660684  0.41658236
   0.33328992  0.66668987  0.41659092
   0.83333967  0.16667299  0.41657906
   0.83339743  0.66669924  0.41659227
   0.16267627  0.32953205  0.63833944
   0.16696376  0.83343769  0.64021865
   0.66646443  0.33193859  0.63947751
   0.66654654  0.83331588  0.64012538
   0.50232240  0.50385233  0.72617307
   0.35409791  0.50322445  0.72753455
Direct configuration=    18
   0.16660110  0.33333448  0.38783777
   0.16670426  0.83332681  0.38773415
   0.66668978  0.33327210  0.38782880
   0.66664892  0.83340437  0.38784368
  -0.00087627 -0.00043744  0.61198111
  -0.00035051  0.49929674  0.61194916
   0.49984281 -0.00061814  0.61209929
   0.50114612  0.50016702  0.61097373
   0.33305977  0.16603041  0.49985426
   0.33306545  0.66700985  0.49990415
   0.83318947  0.16657878  0.50002483
   0.83398495  0.66700272  0.49973382
   0.16681911  0.33348523  0.47091618
   0.16657769  0.83322087  0.47086425
   0.66668204  0.33350587  0.47090530
   0.66658068  0.83311956  0.47092186
   0.00002514 -0.00002568  0.35942554
   0.00002044  0.50005587  0.35942564
   0.49993789 -0.00002406  0.35942337
   0.49999429  0.49999750  0.35943022
   0.33425500  0.16677824  0.58316869
   0.33372268  0.66654079  0.58345617
   0.83137766  0.16563568  0.58305295
   0.83285758  0.66604626  0.58337348
   0.00000604 -0.00024993  0.52889143
   0.00008336  0.50026996  0.52905453
   0.49961184 -0.00030457  0.52884094
   0.50033084  0.50017039  0.52877450
   0.33325397  0.16653512  0.41631421
   0.33324750  0.66672403  0.41634021
   0.83334137  0.16667726  0.41632415
   0.83347197  0.66673472  0.41633689
   0.16210412  0.32901492  0.63835551
   0.16693503  0.83328560  0.64056528
   0.66651931  0.33182185  0.63966329
   0.66645555  0.83309528  0.64043536
   0.50276942  0.50522866  0.72696192
   0.35514563  0.50429288  0.72880340
Direct configuration=    19
   0.16654899  0.33335135  0.38729356
   0.16674150  0.83330842  0.38707285
   0.66671956  0.33322319  0.38727602
   0.66662375  0.83345989  0.38730576
  -0.00125257 -0.00094758  0.61237353
  -0.00065363  0.49899050  0.61227053
   0.49951123 -0.00099655  0.61261435
   0.50130343  0.49990511  0.61117450
   0.33308617  0.16597353  0.49980884
   0.33315825  0.66709750  0.49981046
   0.83302097  0.16643409  0.49998956
   0.83400535  0.66706399  0.49955622
   0.16684452  0.33360585  0.47093798
   0.16648630  0.83306941  0.47083816
   0.66678809  0.33363127  0.47090901
   0.66654147  0.83302194  0.47094509
   0.00005157 -0.00005209  0.35870834
   0.00004029  0.50010985  0.35870797
   0.49988113 -0.00004515  0.35870356
   0.49999288  0.49999421  0.35871716
   0.33475509  0.16675016  0.58334720
   0.33395522  0.66641207  0.58380836
   0.83010787  0.16488617  0.58314146
   0.83261467  0.66570803  0.58368827
  -0.00006598 -0.00048212  0.52874871
   0.00021278  0.50049679  0.52900487
   0.49929346 -0.00066857  0.52863935
   0.50056968  0.50040767  0.52852410
   0.33317691  0.16639167  0.41577790
   0.33316266  0.66679237  0.41583879
   0.83334477  0.16668578  0.41581434
   0.83362104  0.66680566  0.41582614
   0.16095982  0.32798065  0.63838763
   0.16687756  0.83298140  0.64125852
   0.66662907  0.33158836  0.64003484
   0.66627357  0.83265409  0.64105533
   0.50366348  0.50798133  0.72853961
   0.35724108  0.50642974  0.73134111
Direct configuration=    20
   0.16654794  0.33335176  0.38727828
   0.16674249  0.83330814  0.38705438
   0.66672005  0.33322199  0.38726047
   0.66662304  0.83346109  0.38729057
  -0.00126219 -0.00096173  0.61238404
  -0.00066274  0.49898176  0.61227932
   0.49950177 -0.00100629  0.61262825
   0.50130698  0.49989650  0.61118042
   0.33308729  0.16597254  0.49980750
   0.33316093  0.66709941  0.49980780
   0.83301619  0.16643014  0.49998840
   0.83400532  0.66706513  0.49955140
   0.16684476  0.33360883  0.47093861
   0.16648375  0.83306528  0.47083737
   0.66679117  0.33363439  0.47090908
   0.66654067  0.83301973  0.47094560
   0.00005208 -0.00005281  0.35868876
   0.00004073  0.50011115  0.35868836
   0.49987981 -0.00004570  0.35868389
   0.49999291  0.49999423  0.35869778
   0.33476768  0.16674831  0.58335216
   0.33396169  0.66640881  0.58381789
   0.83007329  0.16486464  0.58314397
   0.83260844  0.66569965  0.58369675
  -0.00006800 -0.00048857  0.52874473
   0.00021646  0.50050286  0.52900321
   0.49928407 -0.00067931  0.52863355
   0.50057605  0.50041414  0.52851712
   0.33317496  0.16638786  0.41576327
   0.33316058  0.66679430  0.41582504
   0.83334469  0.16668585  0.41580043
   0.83362488  0.66680754  0.41581211
   0.16093022  0.32795352  0.63838929
   0.16687548  0.83297296  0.64127715
   0.66663216  0.33158228  0.64004514
   0.66626902  0.83264203  0.64107214
   0.50372921  0.50805871  0.72858283
   0.35725817  0.50648890  0.73141292
Direct configuration=    21
   0.16654479  0.33335299  0.38723246
   0.16674547  0.83330728  0.38699896
   0.66672150  0.33321837  0.38721380
   0.66662092  0.83346469  0.38724499
  -0.00129103 -0.00100417  0.61241555
  -0.00069008  0.49895554  0.61230569
   0.49947338 -0.00103553  0.61266996
   0.50131761  0.49987064  0.61119819