CeO2                                    
           1
     7.707464    0.000000    0.000000
    -3.853732    6.674860    0.000000
     0.000000    0.000000   28.319031
   Ce   O    C    O 
  12  24   1   1
Direct configuration=     1
   0.16666700  0.33333300  0.38888900
   0.16666700  0.83333300  0.38888900
   0.66666700  0.33333300  0.38888900
   0.66666700  0.83333300  0.38888900
   0.00000000  0.00000000  0.61111100
   0.00000000  0.50000000  0.61111100
   0.50000000  0.00000000  0.61111100
   0.50000000  0.50000000  0.61111100
   0.33333300  0.16666700  0.50000000
   0.33333300  0.66666700  0.50000000
   0.83333300  0.16666700  0.50000000
   0.83333300  0.66666700  0.50000000
   0.16666700  0.33333300  0.47222200
   0.16666700  0.83333300  0.47222200
   0.66666700  0.33333300  0.47222200
   0.66666700  0.83333300  0.47222200
   0.00000000  0.00000000  0.36111100
   0.00000000  0.50000000  0.36111100
   0.50000000  0.00000000  0.36111100
   0.50000000  0.50000000  0.36111100
   0.33333300  0.16666700  0.58333300
   0.33333300  0.66666700  0.58333300
   0.83333300  0.16666700  0.58333300
   0.83333300  0.66666700  0.58333300
   0.00000000  0.00000000  0.52777800
   0.00000000  0.50000000  0.52777800
   0.50000000  0.00000000  0.52777800
   0.50000000  0.50000000  0.52777800
   0.33333300  0.16666700  0.41666700
   0.33333300  0.66666700  0.41666700
   0.83333300  0.16666700  0.41666700
   0.83333300  0.66666700  0.41666700
   0.16666700  0.33333300  0.63888900
   0.16666700  0.83333300  0.63888900
   0.66666700  0.33333300  0.63888900
   0.66666700  0.83333300  0.63888900
   0.16666700  0.27777800  0.72389500
   0.08112200  0.10668800  0.72389500
Direct configuration=     2
   0.16666723  0.33333219  0.38858292
   0.16665912  0.83333180  0.38858454
   0.66666941  0.33334056  0.38858403
   0.66667196  0.83333012  0.38858461
  -0.00084269 -0.00170557  0.61141146
  -0.00023344  0.50088085  0.61133234
   0.49984338 -0.00030372  0.61146626
   0.50116701  0.50093825  0.61133669
   0.33333376  0.16664779  0.49997398
   0.33334610  0.66669415  0.49998036
   0.83331473  0.16664887  0.49997599
   0.83334042  0.66668003  0.49999591
   0.16666894  0.33333509  0.47180547
   0.16666709  0.83333378  0.47180469
   0.66666621  0.33333417  0.47180599
   0.66666580  0.83333191  0.47180496
   0.00000103  0.00000124  0.36091682
   0.00000087  0.50000069  0.36091658
   0.49999902 -0.00000038  0.36091640
   0.49999950  0.50000071  0.36091669
   0.33325864  0.16682156  0.58314974
   0.33324003  0.66644287  0.58312776
   0.83355378  0.16680219  0.58314746
   0.83329508  0.66660625  0.58311370
   0.00000447  0.00001299  0.52821824
  -0.00000393  0.49998765  0.52822350
   0.50000605  0.00001231  0.52820307
   0.49999215  0.49998833  0.52822602
   0.33333103  0.16666835  0.41689419
   0.33333280  0.66666496  0.41689396
   0.83333674  0.16666794  0.41689428
   0.83333412  0.66666893  0.41689302
   0.16685826  0.33426833  0.63857185
   0.16674144  0.83321261  0.63892696
   0.66664814  0.33334752  0.63906885
   0.66659467  0.83330171  0.63895422
   0.17058220  0.28498134  0.72451711
   0.07707787  0.09885760  0.72406935
Direct configuration=     3
   0.16666703  0.33333288  0.38884337
   0.16666583  0.83333282  0.38884361
   0.66666736  0.33333413  0.38884354
   0.66666774  0.83333257  0.38884362
  -0.00012562 -0.00025426  0.61115579
  -0.00003480  0.50013131  0.61114400
   0.49997665 -0.00004528  0.61116396
   0.50017397  0.50013987  0.61114464
   0.33333311  0.16666414  0.49999612
   0.33333495  0.66667105  0.49999707
   0.83333028  0.16666430  0.49999642
   0.83333411  0.66666894  0.49999939
   0.16666729  0.33333331  0.47215991
   0.16666701  0.83333312  0.47215979
   0.66666688  0.33333317  0.47215998
   0.66666682  0.83333284  0.47215983
   0.00000015  0.00000019  0.36108205
   0.00000013  0.50000010  0.36108202
   0.49999985 -0.00000006  0.36108199
   0.49999993  0.50000011  0.36108203
   0.33332191  0.16669004  0.58330568
   0.33331914  0.66663359  0.58330240
   0.83336591  0.16668715  0.58330534
   0.83332735  0.66665794  0.58330031
   0.00000067  0.00000194  0.52784363
  -0.00000059  0.49999816  0.52784441
   0.50000090  0.00000184  0.52784137
   0.49999883  0.49999826  0.52784479
   0.33333271  0.16666720  0.41670087
   0.33333297  0.66666670  0.41670083
   0.83333356  0.16666714  0.41670088
   0.83333317  0.66666729  0.41670069
   0.16669551  0.33347244  0.63884172
   0.16667810  0.83331505  0.63889466
   0.66666419  0.33333517  0.63891581
   0.66665622  0.83332834  0.63889872
   0.16725066  0.27885185  0.72398774
   0.08051912  0.10552067  0.72392099
Direct configuration=     4
   0.16666585  0.33333176  0.38849610
   0.16666378  0.83333145  0.38849610
   0.66666707  0.33333381  0.38849587
   0.66666771  0.83333130  0.38849636
  -0.00105817 -0.00215256  0.61151608
  -0.00028174  0.50111183  0.61139587
   0.49980400 -0.00037472  0.61156279
   0.50146142  0.50118672  0.61140087
   0.33333051  0.16663689  0.49997393
   0.33335050  0.66670475  0.49997797
   0.83330819  0.16663904  0.49997630
   0.83334499  0.66668668  0.49997919
   0.16667011  0.33333688  0.47166170
   0.16665996  0.83332803  0.47166186
   0.66666911  0.33334074  0.47166237
   0.66666670  0.83332569  0.47166204
   0.00000035  0.00000089  0.36083786
  -0.00000059  0.49999865  0.36083803
   0.49999992  0.00000027  0.36083773
   0.49999918  0.49999909  0.36083809
   0.33322916  0.16684957  0.58310401
   0.33323628  0.66641173  0.58306932
   0.83360193  0.16681663  0.58309994
   0.83328610  0.66660047  0.58304955
  -0.00000656 -0.00000985  0.52836639
  -0.00000784  0.49999980  0.52837004
   0.50000220  0.00000675  0.52835089
   0.50000787  0.49999944  0.52837442
   0.33333273  0.16666796  0.41695307
   0.33333271  0.66666472  0.41695281
   0.83333460  0.16666740  0.41695292
   0.83333266  0.66666628  0.41695332
   0.16695759  0.33463315  0.63850632
   0.16677254  0.83315582  0.63894590
   0.66663721  0.33335276  0.63914189
   0.66655308  0.83327633  0.63898454
   0.16729228  0.27819849  0.72470506
   0.08030566  0.10541133  0.72414252
Direct configuration=     5
   0.16666535  0.33333129  0.38835071
   0.16666292  0.83333087  0.38835061
   0.66666695  0.33333368  0.38835032
   0.66666769  0.83333077  0.38835098
  -0.00144858 -0.00294728  0.61166691
  -0.00038512  0.50152232  0.61150131
   0.49973172 -0.00051264  0.61172976
   0.50200041  0.50162497  0.61150814
   0.33332941  0.16662548  0.49996464
   0.33335700  0.66671887  0.49996997
   0.83329894  0.16662847  0.49996788
   0.83334955  0.66669410  0.49997073
   0.16667129  0.33333838  0.47145313
   0.16665701  0.83332591  0.47145340
   0.66667004  0.33334391  0.47145404
   0.66666665  0.83332270  0.47145364
   0.00000043  0.00000119  0.36073562
  -0.00000089  0.49999804  0.36073588
   0.49999994  0.00000041  0.36073548
   0.49999886  0.49999867  0.36073597
   0.33319033  0.16691635  0.58301958
   0.33320159  0.66631885  0.58297174
   0.83370073  0.16687083  0.58301395
   0.83326884  0.66657641  0.58294457
  -0.00000959 -0.00001479  0.52858524
  -0.00001088  0.50000049  0.52859009
   0.50000274  0.00000881  0.52856420
   0.50001166  0.49999993  0.52859614
   0.33333274  0.16666828  0.41705865
   0.33333260  0.66666390  0.41705830
   0.83333503  0.16666751  0.41705844
   0.83333245  0.66666585  0.41705909
   0.16706731  0.33511908  0.63836590
   0.16681207  0.83308916  0.63896736
   0.66662591  0.33336013  0.63923654
   0.66650990  0.83325456  0.63902047
   0.16730970  0.27792497  0.72500536
   0.08021630  0.10536555  0.72423526
Direct configuration=     6
   0.16666565  0.33333476  0.38831928
   0.16666975  0.83333235  0.38831167
   0.66666519  0.33332856  0.38831402
   0.66666254  0.83333364  0.38831248
  -0.00094294 -0.00189648  0.61164506
  -0.00010708  0.50072592  0.61150038
   0.49998094 -0.00004215  0.61165527
   0.50095218  0.50089612  0.61150796
   0.33330854  0.16662933  0.50008679
   0.33335458  0.66671180  0.50003372
   0.83332146  0.16662975  0.50009290
   0.83335189  0.66669765  0.49985009
   0.16668121  0.33335046  0.47118621
   0.16659681  0.83328868  0.47119102
   0.66670026  0.33341257  0.47119087
   0.66668619  0.83328038  0.47119142
  -0.00000252 -0.00000502  0.36046235
  -0.00000318  0.50000204  0.36046254
   0.49999913 -0.00000022  0.36046208
   0.50000460  0.50000225  0.36046273
   0.33316848  0.16669275  0.58311531
   0.33351129  0.66682317  0.58298629
   0.83341168  0.16656856  0.58309258
   0.83330327  0.66671555  0.58299851
  -0.00017476 -0.00035898  0.52883757
  -0.00010060  0.50019291  0.52880007
   0.49997093 -0.00003628  0.52881146
   0.50029510  0.50018654  0.52881356
   0.33333461  0.16666050  0.41694770
   0.33333779  0.66667567  0.41694796
   0.83332553  0.16666022  0.41694705
   0.83333458  0.66666927  0.41695791
   0.16725896  0.33583898  0.63826809
   0.16668765  0.83296327  0.63916062
   0.66664965  0.33352110  0.63951533
   0.66660024  0.83316330  0.63923816
   0.16707976  0.27677286  0.72564421
   0.08024965  0.10574425  0.72446877
Direct configuration=     7
   0.16666565  0.33333474  0.38831944
   0.16666971  0.83333234  0.38831187
   0.66666520  0.33332859  0.38831420
   0.66666256  0.83333363  0.38831267
  -0.00094554 -0.00190188  0.61164518
  -0.00010852  0.50073001  0.61150039
   0.49997966 -0.00004457  0.61165565
   0.50095757  0.50089987  0.61150796
   0.33330864  0.16662931  0.50008616
   0.33335459  0.66671184  0.50003339
   0.83332134  0.16662975  0.50009226
   0.83335188  0.66669763  0.49985071
   0.16668116  0.33335040  0.47118758
   0.16659712  0.83328887  0.47119237
   0.66670010  0.33341221  0.47119223
   0.66668609  0.83328060  0.47119277
  -0.00000251 -0.00000499  0.36046376
  -0.00000317  0.50000201  0.36046395
   0.49999913 -0.00000022  0.36046349
   0.50000457  0.50000223  0.36046414
   0.33316859  0.16669390  0.58311482
   0.33350969  0.66682057  0.58298621
   0.83341317  0.16657011  0.58309217
   0.83330309  0.66671484  0.58299824
  -0.00017391 -0.00035721  0.52883627
  -0.00010014  0.50019192  0.52879899
   0.49997109 -0.00003605  0.52881019
   0.50029364  0.50018558  0.52881244
   0.33333460  0.16666054  0.41694828
   0.33333777  0.66667561  0.41694852
   0.83332558  0.16666026  0.41694763
   0.83333457  0.66666925  0.41695843
   0.16725798  0.33583527  0.63826859
   0.16668829  0.83296391  0.63915962
   0.66664953  0.33352027  0.63951390
   0.66659977  0.83316377  0.63923704
   0.16708094  0.27677879  0.72564092
   0.08024947  0.10574231  0.72446757
Direct configuration=     8
   0.16666493  0.33333409  0.38830478
   0.16667738  0.83333688  0.38829431
   0.66666141  0.33332057  0.38829773
   0.66665948  0.83333855  0.38829524
  -0.00080912 -0.00161542  0.61163917
  -0.00003393  0.50051967  0.61150249
   0.50004781  0.00008448  0.61164070
   0.50067704  0.50070771  0.61151046
   0.33330262  0.16663311  0.50011523
   0.33335301  0.66670739  0.50004792
   0.83333004  0.16663227  0.50012178
   0.83335120  0.66669640  0.49981803
   0.16668234  0.33335032  0.47112549
   0.16658585  0.83328373  0.47112888
   0.66670490  0.33342434  0.47112916
   0.66669120  0.83327390  0.47112936
  -0.00000408 -0.00000822  0.36038237
  -0.00000422  0.50000404  0.36038256
   0.49999870 -0.00000075  0.36038186
   0.50000745  0.50000410  0.36038280
   0.33316341  0.16662498  0.58314839
   0.33361031  0.66698554  0.58299345
   0.83331964  0.16647579  0.58312005
   0.83331272  0.66675620  0.58302030
  -0.00021619 -0.00044652  0.52889773
  -0.00012585  0.50023868  0.52884719
   0.49996535 -0.00004041  0.52886910
   0.50036667  0.50023032  0.52886267
   0.33333516  0.16665782  0.41691064
   0.33333949  0.66667960  0.41691008
   0.83332236  0.16665773  0.41690989
   0.83333531  0.66667045  0.41692048
   0.16730926  0.33603127  0.63824562
   0.16665304  0.83293494  0.63921908
   0.66665266  0.33356107  0.63959693
   0.66663232  0.83314358  0.63930386
   0.16728665  0.27696261  0.72584612
   0.07998269  0.10531518  0.72453808
Direct configuration=     9
   0.16666409  0.33333334  0.38828799
   0.16668617  0.83334207  0.38827420
   0.66665706  0.33331140  0.38827887
   0.66665594  0.83334418  0.38827528
  -0.00065290 -0.00128737  0.61163229
   0.00005148  0.50027878  0.61150490
   0.50012585  0.00023228  0.61162358
   0.50035577  0.50048765  0.61151332
   0.33329572  0.16663746  0.50014852
   0.33335120  0.66670230  0.50006456
   0.83333999  0.16663517  0.50015558
   0.83335043  0.66669500  0.49978061
   0.16668369  0.33335023  0.47105439
   0.16657293  0.83327783  0.47105617
   0.66671040  0.33343823  0.47105694
   0.66669704  0.83326623  0.47105675
  -0.00000587 -0.00001192  0.36028916
  -0.00000542  0.50000635  0.36028936
   0.49999821 -0.00000136  0.36028838
   0.50001076  0.50000625  0.36028965
   0.33315748  0.16654606  0.58318684
   0.33372553  0.66717445  0.58300175
   0.83321254  0.16636778  0.58315197
   0.83332375  0.66680357  0.58304557
  -0.00026461 -0.00054879  0.52896811
  -0.00015530  0.50029224  0.52890238
   0.49995878 -0.00004540  0.52893658
   0.50045030  0.50028155  0.52892018
   0.33333579  0.16665471  0.41686754
   0.33334147  0.66668417  0.41686605
   0.83331867  0.16665483  0.41686668
   0.83333617  0.66667183  0.41687702
   0.16736798  0.33625573  0.63821931
   0.16661267  0.83290176  0.63928716
   0.66665624  0.33360778  0.63969203
   0.66666960  0.83312046  0.63938039
   0.16752222  0.27717313  0.72608112
   0.07967716  0.10482603  0.72461882
Direct configuration=    10
   0.16666264  0.33333052  0.38826846
   0.16669738  0.83334992  0.38825287
   0.66665073  0.33329875  0.38825831
   0.66665254  0.83335206  0.38825394
  -0.00066637 -0.00130877  0.61164040
   0.00004892  0.50030020  0.61151433
   0.50012722  0.00023633  0.61164113
   0.50037582  0.50051094  0.61152303
   0.33329519  0.16664143  0.50014222
   0.33335081  0.66670013  0.50005998
   0.83334334  0.16663797  0.50014870
   0.83334815  0.66669116  0.49977812
   0.16668097  0.33334391  0.47105898
   0.16658105  0.83328656  0.47105532
   0.66670462  0.33342752  0.47105736
   0.66669735  0.83327447  0.47105603
  -0.00000720 -0.00001466  0.36026158
  -0.00000621  0.50000803  0.36026189
   0.49999785 -0.00000190  0.36026037
   0.50001313  0.50000783  0.36026220
   0.33315595  0.16652883  0.58320093
   0.33376483  0.66723811  0.58300426
   0.83318165  0.16633950  0.58316344
   0.83332379  0.66681272  0.58305676
  -0.00026283 -0.00054740  0.52897000
  -0.00015999  0.50028464  0.52889981
   0.49996443 -0.00002922  0.52893571
   0.50044791  0.50027289  0.52891786
   0.33333598  0.16665356  0.41685314
   0.33334206  0.66668573  0.41684975
   0.83331740  0.16665388  0.41685229
   0.83333655  0.66667233  0.41685723
   0.16737962  0.33630275  0.63822049
   0.16660916  0.83290445  0.63930780
   0.66664930  0.33360592  0.63971886
   0.66668444  0.83312575  0.63940392
   0.16754271  0.27711430  0.72616971
   0.07962810  0.10477484  0.72465282
Direct configuration=    11
   0.16665827  0.33332206  0.38820988
   0.16673104  0.83337346  0.38818888
   0.66663176  0.33326081  0.38819663
   0.66664233  0.83337571  0.38818993
  -0.00070679 -0.00137297  0.61166473
   0.00004124  0.50036446  0.61154262
   0.50013133  0.00024850  0.61169379
   0.50043599  0.50058081  0.61155214
   0.33329361  0.16665334  0.50012334
   0.33334966  0.66669362  0.50004623
   0.83335337  0.16664637  0.50012806
   0.83334132  0.66667965  0.49977064
   0.16667281  0.33332492  0.47107276
   0.16660542  0.83331275  0.47105279
   0.66668730  0.33339540  0.47105863
   0.66669829  0.83329918  0.47105389
  -0.00001119 -0.00002286  0.36017885
  -0.00000857  0.50001307  0.36017949
   0.49999679 -0.00000353  0.36017634
   0.50002023  0.50001257  0.36017986
   0.33315136  0.16647716  0.58324322
   0.33388271  0.66742908  0.58301181
   0.83308898  0.16625465  0.58319784
   0.83332392  0.66684018  0.58309032
  -0.00025750 -0.00054322  0.52897565
  -0.00017408  0.50026184  0.52889207
   0.49998138  0.00001933  0.52893313
   0.50044073  0.50024692  0.52891090
   0.33333655  0.16665013  0.41680993
   0.33334382  0.66669044  0.41680084
   0.83331359  0.16665103  0.41680913
   0.83333768  0.66667382  0.41679785
   0.16741455  0.33644381  0.63822400
   0.16659861  0.83291250  0.63936969
   0.66662849  0.33360033  0.63979936
   0.66672895  0.83314160  0.63947449
   0.16760415  0.27693780  0.72643548
   0.07948090  0.10462130  0.72475480
Direct configuration=    12
   0.16664954  0.33330515  0.38809270
   0.16679835  0.83342054  0.38806092
   0.66659380  0.33318491  0.38807328
   0.66662191  0.83342301  0.38806192
  -0.00078762 -0.00150137  0.61171339
   0.00002587  0.50049297  0.61159921
   0.50013953  0.00027284  0.61179910
   0.50055632  0.50072054  0.61161037
   0.33329044  0.16667717  0.50008558
   0.33334736  0.66668060  0.50001873
   0.83337344  0.16666316  0.50008678
   0.83332766  0.66665662  0.49975569
   0.16665648  0.33328696  0.47110032
   0.16665415  0.83336513  0.47104772
   0.66665265  0.33333115  0.47106115
   0.66670017  0.83334861  0.47104959
  -0.00001916 -0.00003927  0.36001339
  -0.00001329  0.50002314  0.36001469
   0.49999467 -0.00000678  0.36000828
   0.50003445  0.50002205  0.36001519
   0.33314219  0.16637381  0.58332778
   0.33411848  0.66781102  0.58302690
   0.83290364  0.16608494  0.58326665
   0.83332417  0.66689508  0.58315745
  -0.00024685 -0.00053485  0.52898695
  -0.00020224  0.50021623  0.52887661
   0.50001529  0.00011642  0.52892795
   0.50042638  0.50019499  0.52889699
   0.33333770  0.16664326  0.41672350
   0.33334733  0.66669985  0.41670302
   0.83330597  0.16664532  0.41672281
   0.83333994  0.66667681  0.41667909
   0.16748440  0.33672593  0.63823104
   0.16657750  0.83292859  0.63949348
   0.66658686  0.33358916  0.63996036
   0.66681797  0.83317330  0.63961565
   0.16772705  0.27658481  0.72696702
   0.07918650  0.10431420  0.72495877
Direct configuration=    13
   0.16663207  0.33327133  0.38785836
   0.16693297  0.83351471  0.38780498
   0.66651788  0.33303313  0.38782656
   0.66658107  0.83351760  0.38780589
  -0.00094928 -0.00175818  0.61181071
  -0.00000487  0.50075001  0.61171238
   0.50015595  0.00032151  0.61200971
   0.50079698  0.50099999  0.61172683
   0.33328410  0.16672483  0.50001006
   0.33334275  0.66665456  0.49996374
   0.83341358  0.16669675  0.50000422
   0.83330033  0.66661056  0.49972579
   0.16662383  0.33321102  0.47115544
   0.16675163  0.83346988  0.47103758
   0.66658335  0.33320266  0.47106621
   0.66670393  0.83344747  0.47104100
  -0.00003511 -0.00007209  0.35968247
  -0.00002272  0.50004328  0.35968509
   0.49999042 -0.00001328  0.35967217
   0.50006287  0.50004101  0.35968583
   0.33312384  0.16616711  0.58349691
   0.33459002  0.66857491  0.58305709
   0.83253296  0.16574553  0.58340427
   0.83332467  0.66700489  0.58329170
  -0.00022553 -0.00051813  0.52900955
  -0.00025856  0.50012500  0.52884568
   0.50008310  0.00031061  0.52891760
   0.50039766  0.50009112  0.52886915
   0.33333999  0.16662952  0.41655065
   0.33335436  0.66671866  0.41650739
   0.83329073  0.16663390  0.41655017
   0.83334446  0.66668279  0.41644157
   0.16762411  0.33729018  0.63824511
   0.16653530  0.83296079  0.63974105
   0.66650362  0.33356681  0.64028235
   0.66699601  0.83323671  0.63989795
   0.16797284  0.27587881  0.72803010
   0.07859771  0.10370002  0.72536671
Direct configuration=    14
   0.16659713  0.33320368  0.38738966
   0.16720220  0.83370305  0.38729310
   0.66636605  0.33272957  0.38733313
   0.66649938  0.83370678  0.38729384
  -0.00127260 -0.00227179  0.61200536
  -0.00006634  0.50126409  0.61193873
   0.50018878  0.00041886  0.61243095
   0.50127830  0.50155891  0.61195976
   0.33327144  0.16682015  0.49985901
   0.33333353  0.66660249  0.49985375
   0.83349386  0.16676392  0.49983908
   0.83324568  0.66651844  0.49966599
   0.16655853  0.33305915  0.47126567
   0.16694657  0.83367939  0.47101730
   0.66644475  0.33294566  0.47107631
   0.66671145  0.83364520  0.47102381
  -0.00006700 -0.00013773  0.35902063
  -0.00004160  0.50008356  0.35902590
   0.49998192 -0.00002628  0.35899995
   0.50011972  0.50007892  0.35902713
   0.33308714  0.16575372  0.58383516
   0.33553310  0.67010268  0.58311747
   0.83179161  0.16506671  0.58367951
   0.83332566  0.66722451  0.58356020
  -0.00018290 -0.00048468  0.52905475
  -0.00037121  0.49994256  0.52878382
   0.50021872  0.00069899  0.52889690
   0.50034024  0.49988339  0.52881348
   0.33334456  0.16660205  0.41620495
   0.33336843  0.66675629  0.41611612
   0.83326024  0.16661106  0.41620489
   0.83335349  0.66669473  0.41596653
   0.16790352  0.33841867  0.63827325
   0.16645089  0.83302518  0.64023620
   0.66633713  0.33352211  0.64092633
   0.66735209  0.83336352  0.64046256
   0.16846441  0.27446683  0.73015625
   0.07742013  0.10247164  0.72618258
Direct configuration=    15
   0.16660264  0.33321234  0.38733337
   0.16717101  0.83368210  0.38723705
   0.66638242  0.33276516  0.38727745
   0.66650863  0.83368409  0.38723712
  -0.00127948 -0.00226252  0.61203900
  -0.00006224  0.50130224  0.61197230
   0.50020109  0.00045185  0.61247976
   0.50129723  0.50159968  0.61199590
   0.33328888  0.16678692  0.49986736
   0.33337028  0.66667405  0.49985648
   0.83343863  0.16672858  0.49984549
   0.83324849  0.66652379  0.49966047
   0.16655367  0.33304925  0.47126211
   0.16694674  0.83368569  0.47100499
   0.66644400  0.33294414  0.47106278
   0.66671706  0.83365198  0.47101191
  -0.00005920 -0.00012042  0.35893943
  -0.00003815  0.50007218  0.35894593
   0.49998510 -0.00002118  0.35891498
   0.50010509  0.50006849  0.35894725
   0.33309590  0.16574043  0.58386952
   0.33562328  0.67025180  0.58312447
   0.83172840  0.16502989  0.58370760
   0.83331512  0.66722112  0.58358368
  -0.00018152 -0.00048659  0.52904218
  -0.00038501  0.49992703  0.52876961
   0.50023804  0.00076162  0.52887243
   0.50033957  0.49986309  0.52879728
   0.33334351  0.16660773  0.41614575
   0.33336522  0.66674913  0.41605551
   0.83326636  0.16661602  0.41614566
   0.83335150  0.66669217  0.41590398
   0.16794304  0.33855219  0.63829600
   0.16640981  0.83300181  0.64029870
   0.66634450  0.33355778  0.64099633
   0.66738972  0.83335196  0.64053299
   0.16827663  0.27378629  0.73043812
   0.07750304  0.10276413  0.72631909
Direct configuration=    16
   0.16660509  0.33321618  0.38730840
   0.16715717  0.83367281  0.38721218
   0.66638968  0.33278095  0.38725275
   0.66651274  0.83367402  0.38721196
  -0.00128253 -0.00225841  0.61205392
  -0.00006042  0.50131917  0.61198719
   0.50020655  0.00046650  0.61250142
   0.50130563  0.50161777  0.61201193
   0.33329662  0.16677218  0.49987107
   0.33338658  0.66670580  0.49985770
   0.83341412  0.16671289  0.49984834
   0.83324974  0.66652616  0.49965801
   0.16655152  0.33304486  0.47126052
   0.16694682  0.83368848  0.47099953
   0.66644366  0.33294346  0.47105677
   0.66671955  0.83365499  0.47100662
  -0.00005573 -0.00011274  0.35890341
  -0.00003662  0.50006713  0.35891045
   0.49998651 -0.00001892  0.35887728
   0.50009859  0.50006386  0.35891180
   0.33309979  0.16573453  0.58388476
   0.33566329  0.67031796  0.58312757
   0.83170036  0.16501355  0.58372006
   0.83331045  0.66721962  0.58359410
  -0.00018091 -0.00048744  0.52903660
  -0.00039113  0.49992013  0.52876331
   0.50024662  0.00078941  0.52886157
   0.50033927  0.49985408  0.52879010
   0.33334305  0.16661025  0.41611948
   0.33336380  0.66674595  0.41602861
   0.83326907  0.16661823  0.41611938
   0.83335062  0.66669103  0.41587623
   0.16796057  0.33861144  0.63830610
   0.16639158  0.83299143  0.64032643
   0.66634777  0.33357360  0.64102739
   0.66740641  0.83334683  0.64056424
   0.16819331  0.27348435  0.73056318
   0.07753982  0.10289391  0.72637966
Direct configuration=    17
   0.16661716  0.33323661  0.38728704
   0.16708054  0.83362111  0.38719551
   0.66643130  0.33286860  0.38723438
   0.66653605  0.83361961  0.38719427
  -0.00124886 -0.00217209  0.61207626
  -0.00004376  0.50130808  0.61200630
   0.50022169  0.00050614  0.61251690
   0.50126694  0.50160475  0.61203416
   0.33332301  0.16671556  0.49989952
   0.33343967  0.66681363  0.49987260
   0.83332736  0.16665673  0.49987567
   0.83326004  0.66654431  0.49965457
   0.16655302  0.33305101  0.47123904
   0.16691968  0.83366921  0.47098198
   0.66646256  0.33297825  0.47103295
   0.66672740  0.83363827  0.47098937
  -0.00003999 -0.00007832  0.35886445
  -0.00002881  0.50004559  0.35887301
   0.49999240 -0.00000941  0.35883402
   0.50006972  0.50004406  0.35887438
   0.33311924  0.16576857  0.58389451
   0.33567998  0.67035053  0.58313155
   0.83169905  0.16504646  0.58372845
   0.83329449  0.66718682  0.58359547
  -0.00018548 -0.00049646  0.52901316
  -0.00039733  0.49992246  0.52875151
   0.50025863  0.00083636  0.52882785
   0.50034760  0.49985222  0.52877433
   0.33334098  0.16662245  0.41607289
   0.33335758  0.66673117  0.41598609
   0.83328199  0.16662868  0.41607272
   0.83334669  0.66668631  0.41584207
   0.16798346  0.33866701  0.63833775
   0.16633897  0.83294841  0.64035899
   0.66638160  0.33363610  0.64105107
   0.66741878  0.83331353  0.64059991
   0.16822297  0.27332757  0.73074914
   0.07743271  0.10277610  0.72646613
Direct configuration=    18
   0.16665339  0.33329788  0.38722297
   0.16685065  0.83346601  0.38714549
   0.66655615  0.33313154  0.38717929
   0.66660597  0.83345636  0.38714119
  -0.00114784 -0.00191313  0.61214329
   0.00000622  0.50127483  0.61206364
   0.50026709  0.00062506  0.61256336
   0.50115086  0.50156570  0.61210082
   0.33340218  0.16654569  0.49998487
   0.33359892  0.66713712  0.49991731
   0.83306708  0.16648826  0.49995768
   0.83329092  0.66659875  0.49964425
   0.16655755  0.33306946  0.47117458
   0.16683824  0.83361141  0.47092934
   0.66651925  0.33308263  0.47096150
   0.66675095  0.83358809  0.47093759
   0.00000723  0.00002491  0.35874760
  -0.00000538  0.49998100  0.35876069
   0.50001006  0.00001913  0.35870425
   0.49998309  0.49998466  0.35876213
   0.33317756  0.16587070  0.58392375
   0.33573002  0.67044826  0.58314349
   0.83169515  0.16514518  0.58375362
   0.83324662  0.66708843  0.58359961
  -0.00019918 -0.00052349  0.52894285
  -0.00041592  0.49992945  0.52871612
   0.50029468  0.00097722  0.52872669
   0.50037258  0.49984662  0.52872704
   0.33333477  0.16665904  0.41593313
   0.33333893  0.66668683  0.41585854
   0.83332077  0.16666004  0.41593272
   0.83333490  0.66667216  0.41573960
   0.16805212  0.33883373  0.63843271
   0.16618112  0.83281934  0.64045668
   0.66648309  0.33382360  0.64112212
   0.66745590  0.83321365  0.64070692
   0.16831193  0.27285722  0.73130701
   0.07711138  0.10242268  0.72672554
Direct configuration=    19
   0.16672584  0.33342042  0.38709483
   0.16639086  0.83315581  0.38704545
   0.66680586  0.33365743  0.38706911
   0.66674583  0.83312987  0.38703505
  -0.00094581 -0.00139520  0.61227734
   0.00010618  0.50120832  0.61217831
   0.50035791  0.00086289  0.61265628
   0.50091872  0.50148759  0.61223416
   0.33356052  0.16620594  0.50015559
   0.33391742  0.66778409  0.50000672
   0.83254652  0.16615130  0.50012170
   0.83335270  0.66670763  0.49962361
   0.16656659  0.33310637  0.47104567
   0.16667536  0.83349580  0.47082406
   0.66663265  0.33329138  0.47081859
   0.66679806  0.83348774  0.47083403
   0.00010168  0.00023139  0.35851388
   0.00004148  0.49985181  0.35853604
   0.50004537  0.00007620  0.35844471
   0.49980985  0.49986586  0.35853762
   0.33329421  0.16607495  0.58398223
   0.33583012  0.67064370  0.58316737
   0.83168733  0.16534261  0.58380397
   0.83315089  0.66689165  0.58360788
  -0.00022658 -0.00057757  0.52880222
  -0.00045311  0.49994342  0.52864535
   0.50036676  0.00125895  0.52852437
   0.50042254  0.49983542  0.52863246
   0.33332236  0.16673222  0.41565361
   0.33330163  0.66659815  0.41560343
   0.83339832  0.16672277  0.41565272
   0.83331133  0.66664385  0.41553465
   0.16818945  0.33916716  0.63862264
   0.16586542  0.83256121  0.64065207
   0.66668606  0.33419859  0.64126421
   0.66753012  0.83301389  0.64092094
   0.16848985  0.27191654  0.73242275
   0.07646872  0.10171583  0.72724437
Direct configuration=    20
   0.16669321  0.33336523  0.38715254
   0.16659793  0.83329551  0.38709050
   0.66669340  0.33342059  0.38711873
   0.66668284  0.83327691  0.38708285
  -0.00103680 -0.00162845  0.61221697
   0.00006116  0.50123827  0.61212666
   0.50031701  0.00075578  0.61261443
   0.50102327  0.50152276  0.61217411
   0.33348921  0.16635895  0.50007871
   0.33377398  0.66749272  0.49996645
   0.83278096  0.16630305  0.50004783
   0.83332488  0.66665860  0.49963291
   0.16656252  0.33308975  0.47110372
   0.16674871  0.83354786  0.47087147
   0.66658158  0.33319736  0.47088295
   0.66677684  0.83353294  0.47088067
   0.00005914  0.00013840  0.35861913
   0.00002038  0.49990999  0.35863721
   0.50002947  0.00005050  0.35856159
   0.49988787  0.49991937  0.35863873
   0.33324168  0.16598296  0.58395590
   0.33578504  0.67055568  0.58315661
   0.83169085  0.16525370  0.58378129
   0.83319400  0.66698027  0.58360415
  -0.00021424 -0.00055321  0.52886555
  -0.00043636  0.49993713  0.52867722
   0.50033430  0.00113207  0.52861548
   0.50040004  0.49984046  0.52867506
   0.33332795  0.16669926  0.41577950
   0.33331843  0.66663809  0.41571832
   0.83336339  0.16669452  0.41577882
   0.83332195  0.66665660  0.41562695
   0.16812760  0.33901700  0.63853711
   0.16600760  0.83267746  0.64056408
   0.66659465  0.33402971  0.64120022
   0.66749669  0.83310385  0.64082455
   0.16840972  0.27234018  0.73192027
   0.07675814  0.10203417  0.72701071
Direct configuration=    21
   0.16669072  0.33335963  0.38713695
   0.16659291  0.83329773  0.38705556
   0.66669401  0.33342264  0.38708619
   0.66668974  0.83327873  0.38704651
  -0.00101113 -0.00154992  0.61222515
   0.00007478  0.50126558  0.61212347
   0.50032305  0.00079134  0.61261147
   0.50102164  0.50154062  0.61217425