CeO2                                    
           1
     7.707464    0.000000    0.000000
    -3.853732    6.674860    0.000000
     0.000000    0.000000   28.319031
   Ce   O    C    O 
  12  24   1   1
Direct configuration=     1
   0.16666700  0.33333300  0.38888900
   0.16666700  0.83333300  0.38888900
   0.66666700  0.33333300  0.38888900
   0.66666700  0.83333300  0.38888900
   0.00000000  0.00000000  0.61111100
   0.00000000  0.50000000  0.61111100
   0.50000000  0.00000000  0.61111100
   0.50000000  0.50000000  0.61111100
   0.33333300  0.16666700  0.50000000
   0.33333300  0.66666700  0.50000000
   0.83333300  0.16666700  0.50000000
   0.83333300  0.66666700  0.50000000
   0.16666700  0.33333300  0.47222200
   0.16666700  0.83333300  0.47222200
   0.66666700  0.33333300  0.47222200
   0.66666700  0.83333300  0.47222200
   0.00000000  0.00000000  0.36111100
   0.00000000  0.50000000  0.36111100
   0.50000000  0.00000000  0.36111100
   0.50000000  0.50000000  0.36111100
   0.33333300  0.16666700  0.58333300
   0.33333300  0.66666700  0.58333300
   0.83333300  0.16666700  0.58333300
   0.83333300  0.66666700  0.58333300
   0.00000000  0.00000000  0.52777800
   0.00000000  0.50000000  0.52777800
   0.50000000  0.00000000  0.52777800
   0.50000000  0.50000000  0.52777800
   0.33333300  0.16666700  0.41666700
   0.33333300  0.66666700  0.41666700
   0.83333300  0.16666700  0.41666700
   0.83333300  0.66666700  0.41666700
   0.16666700  0.33333300  0.63888900
   0.16666700  0.83333300  0.63888900
   0.66666700  0.33333300  0.63888900
   0.66666700  0.83333300  0.63888900
   0.44444400  0.38888900  0.72389500
   0.59261300  0.38888900  0.72389500
Direct configuration=     2
   0.16666724  0.33333805  0.38861237
   0.16666616  0.83332853  0.38861271
   0.66666943  0.33333568  0.38861187
   0.66666321  0.83333146  0.38861234
  -0.00004480  0.00010666  0.61135195
  -0.00015376  0.49973643  0.61138345
   0.50022658  0.00009751  0.61129798
   0.49984769  0.50031345  0.61109710
   0.33332834  0.16665686  0.50000701
   0.33331400  0.66666687  0.50001081
   0.83333840  0.16667944  0.50001628
   0.83335038  0.66666524  0.50001114
   0.16667211  0.33334321  0.47179055
   0.16666460  0.83332525  0.47179141
   0.66666953  0.33334014  0.47178930
   0.66665936  0.83332390  0.47179243
   0.00000005  0.00000096  0.36090109
  -0.00000029  0.49999945  0.36090146
   0.49999967  0.00000033  0.36090128
   0.49999902  0.49999943  0.36090142
   0.33331652  0.16666933  0.58313043
   0.33337353  0.66670333  0.58311457
   0.83334507  0.16656666  0.58311328
   0.83335386  0.66674585  0.58312101
  -0.00000500 -0.00001161  0.52820302
   0.00001781  0.50001945  0.52819603
   0.49998667 -0.00002154  0.52820384
   0.49999552  0.50001638  0.52821226
   0.33333369  0.16666818  0.41687904
   0.33333147  0.66666553  0.41688146
   0.83333362  0.16666865  0.41687953
   0.83333298  0.66666547  0.41688087
   0.16624534  0.33302344  0.63886430
   0.16674079  0.83352183  0.63913556
   0.66751427  0.33251469  0.63819732
   0.66667990  0.83326800  0.63912379
   0.44357320  0.38925842  0.72445270
   0.59305084  0.38924709  0.72480702
Direct configuration=     3
   0.16666744  0.33334220  0.38838504
   0.16666546  0.83332485  0.38838566
   0.66667142  0.33333788  0.38838414
   0.66666009  0.83333019  0.38838499
  -0.00008162  0.00019430  0.61154995
  -0.00028011  0.49951983  0.61160734
   0.50041277  0.00017765  0.61145164
   0.49972252  0.50057103  0.61108568
   0.33332451  0.16664853  0.50001278
   0.33329838  0.66666677  0.50001969
   0.83334284  0.16668966  0.50002966
   0.83336466  0.66666380  0.50002030
   0.16667631  0.33335160  0.47143601
   0.16666263  0.83331888  0.47143756
   0.66667160  0.33334600  0.47143372
   0.66665308  0.83331643  0.47143942
   0.00000010  0.00000174  0.36072859
  -0.00000053  0.49999900  0.36072927
   0.49999940  0.00000061  0.36072894
   0.49999822  0.49999897  0.36072920
   0.33330298  0.16667124  0.58296396
   0.33340684  0.66673319  0.58293507
   0.83335498  0.16648420  0.58293271
   0.83337101  0.66681064  0.58294681
  -0.00000911 -0.00002115  0.52855229
   0.00003245  0.50003544  0.52853954
   0.49997571 -0.00003924  0.52855379
   0.49999183  0.50002983  0.52856911
   0.33333426  0.16666915  0.41705329
   0.33333021  0.66666432  0.41705770
   0.83333413  0.16667001  0.41705418
   0.83333296  0.66666421  0.41705663
   0.16589884  0.33276905  0.63884400
   0.16680143  0.83367700  0.63933817
   0.66821053  0.33184223  0.63762893
   0.66669050  0.83321459  0.63931673
   0.44285761  0.38956200  0.72491099
   0.59341064  0.38954135  0.72555649
Direct configuration=     4
   0.16666677  0.33334262  0.38833171
   0.16666513  0.83332417  0.38833240
   0.66667218  0.33333814  0.38833071
   0.66665994  0.83333060  0.38833174
  -0.00008885  0.00020582  0.61159668
  -0.00030547  0.49947488  0.61165700
   0.50045192  0.00018796  0.61148522
   0.49969565  0.50063960  0.61107472
   0.33331775  0.16663721  0.50001388
   0.33328830  0.66667043  0.50001929
   0.83334577  0.16669260  0.50003297
   0.83337855  0.66666865  0.50002205
   0.16667994  0.33335445  0.47134491
   0.16666296  0.83331826  0.47134635
   0.66667006  0.33334781  0.47134242
   0.66665016  0.83331257  0.47134868
   0.00000011  0.00000182  0.36067679
  -0.00000047  0.49999906  0.36067750
   0.49999921  0.00000053  0.36067716
   0.49999804  0.49999895  0.36067745
   0.33329197  0.16667432  0.58292742
   0.33341986  0.66673912  0.58289599
   0.83336632  0.16644545  0.58289011
   0.83337356  0.66683736  0.58290913
  -0.00000853 -0.00002317  0.52864060
   0.00003721  0.50003975  0.52862745
   0.49997188 -0.00004454  0.52864211
   0.49998933  0.50003443  0.52865952
   0.33333430  0.16666924  0.41708817
   0.33332988  0.66666412  0.41709291
   0.83333425  0.16667031  0.41708890
   0.83333308  0.66666403  0.41709168
   0.16581262  0.33270504  0.63884359
   0.16681674  0.83371868  0.63939776
   0.66839052  0.33166976  0.63748443
   0.66668908  0.83319199  0.63937349
   0.44317333  0.38965153  0.72504828
   0.59299395  0.38962445  0.72576883
Direct configuration=     5
   0.16666510  0.33334368  0.38819851
   0.16666429  0.83332248  0.38819939
   0.66667408  0.33333880  0.38819726
   0.66665956  0.83333162  0.38819875
  -0.00010692  0.00023460  0.61171340
  -0.00036882  0.49936262  0.61178105
   0.50054969  0.00021371  0.61156909
   0.49962853  0.50081084  0.61104735
   0.33330085  0.16660892  0.50001662
   0.33326314  0.66667959  0.50001829
   0.83335308  0.16669995  0.50004125
   0.83341327  0.66668078  0.50002642
   0.16668901  0.33336157  0.47111737
   0.16666379  0.83331670  0.47111853
   0.66666621  0.33335233  0.47111439
   0.66664287  0.83330293  0.47112204
   0.00000015  0.00000202  0.36054740
  -0.00000033  0.49999920  0.36054818
   0.49999873  0.00000034  0.36054783
   0.49999761  0.49999891  0.36054817
   0.33326446  0.16668200  0.58283615
   0.33345237  0.66675391  0.58279838
   0.83339464  0.16634866  0.58278369
   0.83337992  0.66690409  0.58281503
  -0.00000709 -0.00002822  0.52886116
   0.00004910  0.50005051  0.52884702
   0.49996232 -0.00005777  0.52886272
   0.49998309  0.50004591  0.52888531
   0.33333440  0.16666946  0.41717529
   0.33332906  0.66666360  0.41718086
   0.83333455  0.16667105  0.41717562
   0.83333338  0.66666356  0.41717924
   0.16559728  0.33254517  0.63884255
   0.16685496  0.83382281  0.63954658
   0.66884008  0.33123899  0.63712354
   0.66668553  0.83313554  0.63951524
   0.44396189  0.38987516  0.72539116
   0.59195320  0.38983200  0.72629915
Direct configuration=     6
   0.16666518  0.33334363  0.38820485
   0.16666433  0.83332256  0.38820573
   0.66667399  0.33333877  0.38820361
   0.66665957  0.83333157  0.38820508
  -0.00010606  0.00023323  0.61170784
  -0.00036580  0.49936797  0.61177515
   0.50054504  0.00021248  0.61156510
   0.49963172  0.50080269  0.61104865
   0.33330165  0.16661026  0.50001649
   0.33326433  0.66667915  0.50001834
   0.83335273  0.16669960  0.50004085
   0.83341161  0.66668020  0.50002621
   0.16668858  0.33336123  0.47112820
   0.16666375  0.83331678  0.47112938
   0.66666640  0.33335211  0.47112524
   0.66664322  0.83330339  0.47113283
   0.00000015  0.00000201  0.36055356
  -0.00000034  0.49999920  0.36055433
   0.49999875  0.00000035  0.36055398
   0.49999763  0.49999891  0.36055433
   0.33326577  0.16668163  0.58284050
   0.33345082  0.66675321  0.58280303
   0.83339329  0.16635327  0.58278876
   0.83337962  0.66690091  0.58281951
  -0.00000716 -0.00002798  0.52885066
   0.00004853  0.50005000  0.52883656
   0.49996277 -0.00005714  0.52885222
   0.49998339  0.50004536  0.52887456
   0.33333440  0.16666945  0.41717115
   0.33332910  0.66666362  0.41717667
   0.83333453  0.16667101  0.41717149
   0.83333336  0.66666358  0.41717508
   0.16560753  0.33255278  0.63884260
   0.16685314  0.83381785  0.63953950
   0.66881867  0.33125950  0.63714073
   0.66668570  0.83313823  0.63950849
   0.44392435  0.38986452  0.72537484
   0.59200275  0.38982212  0.72627390
Direct configuration=     7
   0.16666515  0.33334365  0.38820235
   0.16666432  0.83332253  0.38820323
   0.66667403  0.33333878  0.38820111
   0.66665957  0.83333159  0.38820259
  -0.00010640  0.00023377  0.61171003
  -0.00036699  0.49936587  0.61177747
   0.50054687  0.00021296  0.61156667
   0.49963046  0.50080590  0.61104814
   0.33330133  0.16660973  0.50001654
   0.33326386  0.66667932  0.50001832
   0.83335287  0.16669974  0.50004101
   0.83341226  0.66668043  0.50002629
   0.16668875  0.33336137  0.47112394
   0.16666377  0.83331675  0.47112511
   0.66666632  0.33335220  0.47112097
   0.66664308  0.83330321  0.47112858
   0.00000015  0.00000201  0.36055113
  -0.00000034  0.49999920  0.36055191
   0.49999874  0.00000034  0.36055156
   0.49999762  0.49999891  0.36055191
   0.33326525  0.16668178  0.58283879
   0.33345143  0.66675348  0.58280120
   0.83339382  0.16635145  0.58278676
   0.83337974  0.66690216  0.58281774
  -0.00000713 -0.00002807  0.52885480
   0.00004876  0.50005020  0.52884068
   0.49996259 -0.00005739  0.52885635
   0.49998327  0.50004558  0.52887879
   0.33333440  0.16666945  0.41717278
   0.33332908  0.66666361  0.41717832
   0.83333454  0.16667103  0.41717312
   0.83333337  0.66666357  0.41717672
   0.16560349  0.33254978  0.63884258
   0.16685386  0.83381980  0.63954229
   0.66882710  0.33125142  0.63713396
   0.66668563  0.83313717  0.63951115
   0.44393913  0.38986871  0.72538126
   0.59198325  0.38982601  0.72628384
Direct configuration=     8
   0.16666382  0.33334252  0.38820227
   0.16666389  0.83332294  0.38820295
   0.66667444  0.33333837  0.38820109
   0.66666068  0.83333287  0.38820275
  -0.00010207  0.00021877  0.61171065
  -0.00035070  0.49937813  0.61177067
   0.50053521  0.00018960  0.61156099
   0.49962895  0.50082143  0.61103258
   0.33328935  0.16659156  0.50001586
   0.33325149  0.66668655  0.50001288
   0.83335689  0.16670003  0.50004139
   0.83343274  0.66669125  0.50002513
   0.16669435  0.33336378  0.47110935
   0.16666526  0.83331798  0.47110988
   0.66666235  0.33335348  0.47110656
   0.66663976  0.83329849  0.47111404
   0.00000019  0.00000180  0.36052778
  -0.00000000  0.49999968  0.36052848
   0.49999828 -0.00000006  0.36052819
   0.49999762  0.49999916  0.36052853
   0.33324841  0.16668616  0.58284453
   0.33346280  0.66675251  0.58280798
   0.83341240  0.16630809  0.58278628
   0.83337701  0.66692715  0.58282499
  -0.00000387 -0.00002847  0.52886561
   0.00005183  0.50005205  0.52885379
   0.49995933 -0.00006051  0.52886710
   0.49998021  0.50004920  0.52888993
   0.33333400  0.16666891  0.41715941
   0.33332870  0.66666386  0.41716472
   0.83333458  0.16667107  0.41715924
   0.83333392  0.66666392  0.41716306
   0.16559221  0.33254250  0.63885058
   0.16685619  0.83382946  0.63956694
   0.66885658  0.33122544  0.63711470
   0.66667654  0.83311541  0.63953460
   0.44392045  0.38990882  0.72543775
   0.59197320  0.38985409  0.72636677
Direct configuration=     9
   0.16665985  0.33333912  0.38820203
   0.16666261  0.83332415  0.38820209
   0.66667570  0.33333713  0.38820103
   0.66666403  0.83333670  0.38820326
  -0.00008907  0.00017377  0.61171254
  -0.00030182  0.49941494  0.61175024
   0.50050023  0.00011953  0.61154396
   0.49962441  0.50086803  0.61098591
   0.33325339  0.16653704  0.50001382
   0.33321438  0.66670823  0.49999656
   0.83336897  0.16670091  0.50004253
   0.83349419  0.66672371  0.50002164
   0.16671114  0.33337101  0.47106558
   0.16666972  0.83332166  0.47106421
   0.66665043  0.33335733  0.47106331
   0.66662978  0.83328431  0.47107040
   0.00000032  0.00000117  0.36045770
   0.00000099  0.50000114  0.36045819
   0.49999689 -0.00000127  0.36045807
   0.49999760  0.49999994  0.36045842
   0.33319788  0.16669933  0.58286176
   0.33349690  0.66674958  0.58282830
   0.83346814  0.16617801  0.58278485
   0.83336884  0.66700212  0.58284671
   0.00000591 -0.00002967  0.52889807
   0.00006106  0.50005759  0.52889313
   0.49994955 -0.00006986  0.52889935
   0.49997105  0.50006007  0.52892336
   0.33333279  0.16666729  0.41711928
   0.33332755  0.66666461  0.41712390
   0.83333471  0.16667120  0.41711760
   0.83333557  0.66666497  0.41712208
   0.16555835  0.33252066  0.63887457
   0.16686321  0.83385844  0.63964092
   0.66894501  0.33114748  0.63705692
   0.66664928  0.83305013  0.63960496
   0.44386441  0.39002914  0.72560721
   0.59194306  0.38993835  0.72661557
Direct configuration=    10
   0.16665190  0.33333234  0.38820154
   0.16666006  0.83332658  0.38820037
   0.66667821  0.33333465  0.38820090
   0.66667073  0.83334437  0.38820427
  -0.00006308  0.00008378  0.61171630
  -0.00020408  0.49948856  0.61170939
   0.50043027 -0.00002063  0.61150988
   0.49961533  0.50096124  0.61089257
   0.33318148  0.16642801  0.50000974
   0.33314014  0.66675159  0.49996392
   0.83339312  0.16670268  0.50004481
   0.83361707  0.66678862  0.50001465
   0.16674472  0.33338547  0.47097805
   0.16667864  0.83332904  0.47097285
   0.66662659  0.33336502  0.47097681
   0.66660983  0.83325597  0.47098314
   0.00000058 -0.00000009  0.36031756
   0.00000298  0.50000406  0.36031761
   0.49999410 -0.00000369  0.36031783
   0.49999757  0.50000148  0.36031818
   0.33309684  0.16672565  0.58289621
   0.33356510  0.66674372  0.58286895
   0.83357962  0.16591785  0.58278198
   0.83335250  0.66715207  0.58289016
   0.00002547 -0.00003208  0.52896298
   0.00007950  0.50006867  0.52897181
   0.49992997 -0.00008856  0.52896386
   0.49995271  0.50008182  0.52899021
   0.33333037  0.16666405  0.41703904
   0.33332525  0.66666610  0.41704226
   0.83333498  0.16667145  0.41703433
   0.83333886  0.66666708  0.41704012
   0.16549063  0.33247697  0.63892254
   0.16687724  0.83391639  0.63978886
   0.66912188  0.33099157  0.63694135
   0.66659476  0.83291957  0.63974567
   0.44375235  0.39026979  0.72594614
   0.59188278  0.39010685  0.72711316
Direct configuration=    11
   0.16663600  0.33331876  0.38820057
   0.16665495  0.83333144  0.38819692
   0.66668324  0.33332969  0.38820064
   0.66668413  0.83335971  0.38820628
  -0.00001109 -0.00009622  0.61172383
  -0.00000860  0.49963579  0.61162770
   0.50029036 -0.00030094  0.61144174
   0.49959718  0.50114765  0.61070588
   0.33303765  0.16620994  0.50000159
   0.33299168  0.66683830  0.49989864
   0.83344144  0.16670621  0.50004938
   0.83386285  0.66691845  0.50000069
   0.16681189  0.33341439  0.47080299
   0.16669648  0.83334379  0.47079013
   0.66657891  0.33338041  0.47080382
   0.66656992  0.83319928  0.47080860
   0.00000110 -0.00000261  0.36003726
   0.00000697  0.50000989  0.36003646
   0.49998852 -0.00000853  0.36003736
   0.49999750  0.50000456  0.36003770
   0.33289474  0.16677829  0.58296511
   0.33370151  0.66673201  0.58295026
   0.83380257  0.16539752  0.58277625
   0.83331982  0.66745197  0.58297705
   0.00006459 -0.00003688  0.52909280
   0.00011640  0.50009084  0.52912917
   0.49989083 -0.00012596  0.52909288
   0.49991605  0.50012530  0.52912391
   0.33332554  0.16665756  0.41687855
   0.33332064  0.66666908  0.41687899
   0.83333551  0.16667195  0.41686778
   0.83334545  0.66667129  0.41687620
   0.16535520  0.33238960  0.63901848
   0.16690530  0.83403231  0.64008475
   0.66947562  0.33067975  0.63671021
   0.66648573  0.83265845  0.64002710
   0.44352821  0.39075108  0.72662399
   0.59176222  0.39044387  0.72810834
Direct configuration=    12
   0.16660420  0.33329161  0.38819862
   0.16664474  0.83334117  0.38819004
   0.66669328  0.33331977  0.38820013
   0.66671092  0.83339038  0.38821031
   0.00009288 -0.00045621  0.61173889
   0.00038238  0.49993026  0.61146431
   0.50001052 -0.00086156  0.61130545
   0.49956087  0.50152047  0.61033251
   0.33274999  0.16577379  0.49998527
   0.33269476  0.66701173  0.49976807
   0.83353806  0.16671328  0.50005851
   0.83435439  0.66717811  0.49997276
   0.16694622  0.33347224  0.47045287
   0.16673217  0.83337329  0.47042471
   0.66648356  0.33341120  0.47045785
   0.66649011  0.83308590  0.47045953
   0.00000214 -0.00000766  0.35947667
   0.00001493  0.50002156  0.35947415
   0.49997737 -0.00001820  0.35947641
   0.49999736  0.50001073  0.35947676
   0.33249056  0.16688357  0.58310291
   0.33397432  0.66670857  0.58311287
   0.83424848  0.16435686  0.58276478
   0.83325447  0.66805175  0.58315084
   0.00014284 -0.00004650  0.52935243
   0.00019019  0.50013519  0.52944388
   0.49981254 -0.00020076  0.52935091
   0.49984272  0.50021228  0.52939131
   0.33331588  0.16664458  0.41655757
   0.33331143  0.66667503  0.41655244
   0.83333657  0.16667297  0.41653469
   0.83335863  0.66667970  0.41654837
   0.16508433  0.33221486  0.63921036
   0.16696143  0.83426413  0.64067653
   0.67018309  0.33005611  0.63624794
   0.66626765  0.83213621  0.64058995
   0.44307993  0.39171367  0.72797968
   0.59152109  0.39111789  0.73009870
Direct configuration=    13
   0.16662632  0.33331050  0.38819997
   0.16665184  0.83333440  0.38819483
   0.66668629  0.33332667  0.38820049
   0.66669229  0.83336905  0.38820751
   0.00002056 -0.00020581  0.61172841
   0.00011042  0.49972543  0.61157796
   0.50020517 -0.00047160  0.61140025
   0.49958612  0.50126114  0.61059222
   0.33295008  0.16607717  0.49999662
   0.33290130  0.66689110  0.49985889
   0.83347085  0.16670837  0.50005216
   0.83401248  0.66699750  0.49999219
   0.16685278  0.33343200  0.47069641
   0.16670734  0.83335277  0.47067889
   0.66654989  0.33338978  0.47069850
   0.66654563  0.83316476  0.47070234
   0.00000142 -0.00000415  0.35986661
   0.00000939  0.50001344  0.35986528
   0.49998512 -0.00001147  0.35986659
   0.49999745  0.50000644  0.35986694
   0.33277170  0.16681034  0.58300706
   0.33378456  0.66672487  0.58299976
   0.83393831  0.16508072  0.58277276
   0.83329993  0.66763455  0.58302996
   0.00008841 -0.00003981  0.52917184
   0.00013887  0.50010434  0.52922497
   0.49986700 -0.00014873  0.52917143
   0.49989373  0.50015178  0.52920531
   0.33332260  0.16665360  0.41678084
   0.33331784  0.66667089  0.41677958
   0.83333583  0.16667226  0.41676638
   0.83334947  0.66667385  0.41677641
   0.16527274  0.33233641  0.63907689
   0.16692239  0.83410288  0.64026490
   0.66969099  0.33048990  0.63656949
   0.66641934  0.83249947  0.64019844
   0.44339174  0.39104411  0.72703669
   0.59168881  0.39064905  0.72871425
Direct configuration=    14
   0.16662240  0.33329985  0.38814709
   0.16664909  0.83334233  0.38813332
   0.66668331  0.33332443  0.38815064
   0.66670112  0.83337441  0.38815648
   0.00003214 -0.00024510  0.61177419
   0.00016875  0.49972832  0.61158705
   0.50019403 -0.00054813  0.61142113
   0.49958943  0.50127056  0.61060020
   0.33292611  0.16606262  0.49998953
   0.33290209  0.66690065  0.49982525
   0.83348164  0.16668115  0.50004689
   0.83402731  0.66702837  0.49997861
   0.16686944  0.33344708  0.47070111
   0.16670933  0.83334708  0.47068097
   0.66654407  0.33339934  0.47070648
   0.66653229  0.83314738  0.47070718
   0.00000270 -0.00000592  0.35979190
   0.00001323  0.50001816  0.35979056
   0.49998039 -0.00001556  0.35979215
   0.49999640  0.50000805  0.35979282
   0.33268806  0.16679020  0.58302248
   0.33381732  0.66674278  0.58301883
   0.83400931  0.16487732  0.58276229
   0.83332002  0.66775227  0.58305078
   0.00011910 -0.00006638  0.52913952
   0.00015845  0.50013193  0.52921303
   0.49983101 -0.00017505  0.52914757
   0.49988657  0.50017585  0.52917332
   0.33331314  0.16664012  0.41672761
   0.33330920  0.66667590  0.41672563
   0.83333839  0.16667292  0.41671176
   0.83336401  0.66668210  0.41672336
   0.16526606  0.33236117  0.63910242
   0.16693966  0.83411022  0.64033783
   0.66973874  0.33045832  0.63654476
   0.66635101  0.83239687  0.64026881
   0.44355876  0.39122603  0.72728568
   0.59142292  0.39076033  0.72906078
Direct configuration=    15
   0.16661063  0.33326792  0.38798844
   0.16664084  0.83336611  0.38794881
   0.66667437  0.33331771  0.38800108
   0.66672763  0.83339052  0.38800339
   0.00006690 -0.00036296  0.61191151
   0.00034373  0.49973699  0.61161432
   0.50016059 -0.00077771  0.61148377
   0.49959934  0.50129880  0.61062415
   0.33285419  0.16601896  0.49996826
   0.33290447  0.66692932  0.49972433
   0.83351403  0.16659952  0.50003109
   0.83407180  0.66712101  0.49993786
   0.16691942  0.33349229  0.47071522
   0.16671529  0.83333001  0.47068721
   0.66652661  0.33342800  0.47073040
   0.66649226  0.83309524  0.47072170
   0.00000654 -0.00001124  0.35956778
   0.00002473  0.50003230  0.35956637
   0.49996618 -0.00002783  0.35956881
   0.49999325  0.50001289  0.35957045
   0.33243713  0.16672977  0.58306876
   0.33391561  0.66679649  0.58307604
   0.83422228  0.16426714  0.58273088
   0.83338029  0.66810543  0.58311326
   0.00021114 -0.00014609  0.52904258
   0.00021722  0.50021471  0.52917721
   0.49972306 -0.00025400  0.52907598
   0.49986511  0.50024807  0.52907737
   0.33328476  0.16659966  0.41656794
   0.33328331  0.66669094  0.41656378
   0.83334607  0.16667489  0.41654789
   0.83340765  0.66670685  0.41656422
   0.16524602  0.33243545  0.63917898
   0.16699145  0.83413225  0.64055663
   0.66988200  0.33036356  0.63647056
   0.66614602  0.83208907  0.64047990
   0.44405980  0.39177179  0.72803267
   0.59062525  0.39109417  0.73010038
Direct configuration=    16
   0.16658711  0.33320404  0.38767114
   0.16662433  0.83341367  0.38757977
   0.66665649  0.33330426  0.38770197
   0.66678066  0.83342273  0.38769722
   0.00013641 -0.00059869  0.61218616
   0.00069370  0.49975433  0.61166885
   0.50009372 -0.00123686  0.61160906
   0.49961917  0.50135529  0.61067205
   0.33271035  0.16593165  0.49992573
   0.33290923  0.66698667  0.49952249
   0.83357880  0.16643625  0.49999949
   0.83416078  0.66730628  0.49985637
   0.16701938  0.33358272  0.47074345
   0.16672720  0.83329587  0.47069969
   0.66649171  0.33348531  0.47077825
   0.66641221  0.83299096  0.47075075
   0.00001422 -0.00002189  0.35911955
   0.00004774  0.50006060  0.35911801
   0.49993775 -0.00005237  0.35912214
   0.49998694  0.50002257  0.35912570
   0.33193527  0.16660891  0.58316130
   0.33411220  0.66690391  0.58319046
   0.83464824  0.16304677  0.58266807
   0.83350084  0.66881173  0.58323823
   0.00039524 -0.00030551  0.52884869
   0.00033476  0.50038026  0.52910556
   0.49950716 -0.00041191  0.52893281
   0.49982217  0.50039252  0.52888545
   0.33322801  0.16651875  0.41624859
   0.33323152  0.66672102  0.41624009
   0.83336143  0.16667884  0.41622016
   0.83349492  0.66675636  0.41624593
   0.16520595  0.33258400  0.63933212
   0.16709504  0.83417631  0.64099423
   0.67016853  0.33017405  0.63632217
   0.66573604  0.83147347  0.64090210
   0.44506187  0.39286331  0.72952664
   0.58902992  0.39176184  0.73217958
Direct configuration=    17
   0.16660351  0.33324858  0.38789238
   0.16663584  0.83338051  0.38783708
   0.66666896  0.33331364  0.38791053
   0.66674369  0.83340027  0.38791070
   0.00008794 -0.00043433  0.61199466
   0.00044968  0.49974224  0.61163083
   0.50014035 -0.00091672  0.61152170
   0.49960535  0.50131590  0.61063865
   0.33281064  0.16599253  0.49995538
   0.33290591  0.66694668  0.49966323
   0.83353364  0.16655009  0.50002152
   0.83409874  0.66717710  0.49991319
   0.16694969  0.33351967  0.47072377
   0.16671889  0.83331967  0.47069099
   0.66651605  0.33344535  0.47074489
   0.66646802  0.83306367  0.47073050
   0.00000886 -0.00001447  0.35943208
   0.00003170  0.50004087  0.35943063
   0.49995757 -0.00003526  0.35943358
   0.49999134  0.50001582  0.35943580
   0.33228519  0.16669318  0.58309677
   0.33397513  0.66682901  0.58311068
   0.83435124  0.16389768  0.58271187
   0.83341679  0.66831926  0.58315110
   0.00026688 -0.00019435  0.52898388
   0.00025280  0.50026483  0.52915551
   0.49965770 -0.00030181  0.52903263
   0.49985211  0.50029180  0.52901927
   0.33326758  0.16657516  0.41647125
   0.33326763  0.66670005  0.41646579
   0.83335072  0.16667609  0.41644867
   0.83343407  0.66672184  0.41646786
   0.16523389  0.33248042  0.63922534
   0.16702281  0.83414559  0.64068911
   0.66996875  0.33030619  0.63642563
   0.66602190  0.83190270  0.64060772
   0.44436317  0.39210225  0.72848497
   0.59014227  0.39129630  0.73072986
Direct configuration=    18
   0.16660249  0.33324526  0.38787455
   0.16663500  0.83338308  0.38781646
   0.66666786  0.33331298  0.38789383
   0.66674640  0.83340179  0.38789340
   0.00009129 -0.00044516  0.61200962
   0.00046689  0.49974091  0.61163469
   0.50013855 -0.00093895  0.61152929
   0.49960642  0.50131637  0.61064356
   0.33280469  0.16599055  0.49995299
   0.33290804  0.66694877  0.49965281
   0.83353660  0.16654089  0.50001952
   0.83410051  0.66718557  0.49990873
   0.16695400  0.33352430  0.47072692
   0.16671929  0.83331734  0.47069327
   0.66651504  0.33344827  0.47074919
   0.66646421  0.83305892  0.47073365
   0.00000921 -0.00001500  0.35941020
   0.00003290  0.50004230  0.35940879
   0.49995615 -0.00003655  0.35941183
   0.49999100  0.50001637  0.35941421
   0.33225997  0.16668515  0.58310122
   0.33398429  0.66683553  0.58311602
   0.83437149  0.16383605  0.58270869
   0.83342437  0.66835470  0.58315706
   0.00027695 -0.00020352  0.52897148
   0.00025859  0.50027345  0.52914988
   0.49964628 -0.00030999  0.52902338
   0.49985034  0.50029931  0.52900723
   0.33326441  0.16657078  0.41645514
   0.33326493  0.66670169  0.41644943
   0.83335158  0.16667616  0.41643224
   0.83343877  0.66672467  0.41645185
   0.16523318  0.33249046  0.63923286
   0.16702870  0.83414595  0.64070989
   0.66998018  0.33029960  0.63642084
   0.66599975  0.83187148  0.64062798
   0.44433786  0.39215909  0.72856022
   0.59013884  0.39132943  0.73083710
Direct configuration=    19
   0.16659941  0.33323532  0.38782108
   0.16663249  0.83339078  0.38775460
   0.66666457  0.33331103  0.38784373
   0.66675453  0.83340633  0.38784150
   0.00010134 -0.00047765  0.61205449
   0.00051853  0.49973692  0.61164627
   0.50013316 -0.00100567  0.61155205
   0.49960964  0.50131776  0.61065829
   0.33278682  0.16598461  0.49994579
   0.33291442  0.66695504  0.49962158
   0.83354547  0.16651330  0.50001352
   0.83410584  0.66721097  0.49989534
   0.16696693  0.33353822  0.47073635
   0.16672050  0.83331035  0.47070013
   0.66651202  0.33345704  0.47076208
   0.66645277  0.83304469  0.47074310
   0.00001025 -0.00001662  0.35934457
   0.00003649  0.50004659  0.35934327
   0.49995187 -0.00004042  0.35934657
   0.49998997  0.50001801  0.35934943
   0.33218428  0.16666108  0.58311454
   0.33401179  0.66685511  0.58313204
   0.83443226  0.16365115  0.58269915
   0.83344710  0.66846104  0.58317493
   0.00030715 -0.00023103  0.52893430
   0.00027593  0.50029931  0.52913296
   0.49961201 -0.00033453  0.52899561
   0.49984504  0.50032182  0.52897112
   0.33325490  0.16655762  0.41640679
   0.33325685  0.66670663  0.41640035
   0.83335417  0.16667637  0.41638296
   0.83345288  0.66673315  0.41640383
   0.16523104  0.33252058  0.63925539
   0.16704636  0.83414702  0.64077222
   0.67001447  0.33027984  0.63640647
   0.66593329  0.83177781  0.64068877
   0.44426194  0.39232961  0.72878597
   0.59012853  0.39142880  0.73115884
Direct configuration=    20
   0.16659325  0.33321543  0.38771414
   0.16662746  0.83340618  0.38763088
   0.66665799  0.33330713  0.38774352
   0.66677080  0.83341542  0.38773770
   0.00012144 -0.00054263  0.61214424
   0.00062179  0.49972895  0.61166944
   0.50012238 -0.00113909  0.61159756
   0.49961607  0.50132055  0.61068775
   0.33275109  0.16597272  0.49993140
   0.33292718  0.66696756  0.49955912
   0.83356321  0.16645811  0.50000152
   0.83411648  0.66726178  0.49986856
   0.16699281  0.33356605  0.47075523
   0.16672290  0.83329635  0.47071385
   0.66650598  0.33347458  0.47078787
   0.66642990  0.83301622  0.47076200
   0.00001233 -0.00001985  0.35921330
   0.00004368  0.50005518  0.35921224
   0.49994332 -0.00004816  0.35921605
   0.49998792  0.50002131  0.35921988
   0.33203290  0.16661294  0.58314119
   0.33406679  0.66689427  0.58316408
   0.83455379  0.16328136  0.58268007
   0.83349256  0.66867370  0.58321068
   0.00036757 -0.00028603  0.52885993
   0.00031062  0.50035103  0.52909912
   0.49954347 -0.00038362  0.52894009
   0.49983444  0.50036685  0.52889889
   0.33323587  0.16653129  0.41631010
   0.33324068  0.66671649  0.41630220
   0.83335936  0.16667679  0.41628440
   0.83348111  0.66675012  0.41630779
   0.16522676  0.33258082  0.63930046
   0.16708168  0.83414918  0.64089689
   0.67008306  0.33024032  0.63637772
   0.66580036  0.83159047  0.64081034
   0.44411009  0.39267067  0.72923748
   0.59010793  0.39162755  0.73180232
Direct configuration=    21
   0.16658095  0.33317566  0.38750025
   0.16661740  0.83343699  0.38738344
   0.66664482  0.33329931  0.38754312
   0.66680333  0.83343360  0.38753009
   0.00016164 -0.00067260  0.61232374
   0.00082831  0.49971299  0.61171577
   0.50010081 -0.00140594  0.61168860
   0.49962895  0.50132612  0.61074666