CeO2                                    
           1
     7.707464    0.000000    0.000000
    -3.853732    6.674860    0.000000
     0.000000    0.000000   28.319031
   Ce   O    C    O 
  12  24   1   1
Direct configuration=     1
   0.16666700  0.33333300  0.38888900
   0.16666700  0.83333300  0.38888900
   0.66666700  0.33333300  0.38888900
   0.66666700  0.83333300  0.38888900
   0.00000000  0.00000000  0.61111100
   0.00000000  0.50000000  0.61111100
   0.50000000  0.00000000  0.61111100
   0.50000000  0.50000000  0.61111100
   0.33333300  0.16666700  0.50000000
   0.33333300  0.66666700  0.50000000
   0.83333300  0.16666700  0.50000000
   0.83333300  0.66666700  0.50000000
   0.16666700  0.33333300  0.47222200
   0.16666700  0.83333300  0.47222200
   0.66666700  0.33333300  0.47222200
   0.66666700  0.83333300  0.47222200
   0.00000000  0.00000000  0.36111100
   0.00000000  0.50000000  0.36111100
   0.50000000  0.00000000  0.36111100
   0.50000000  0.50000000  0.36111100
   0.33333300  0.16666700  0.58333300
   0.33333300  0.66666700  0.58333300
   0.83333300  0.16666700  0.58333300
   0.83333300  0.66666700  0.58333300
   0.00000000  0.00000000  0.52777800
   0.00000000  0.50000000  0.52777800
   0.50000000  0.00000000  0.52777800
   0.50000000  0.50000000  0.52777800
   0.33333300  0.16666700  0.41666700
   0.33333300  0.66666700  0.41666700
   0.83333300  0.16666700  0.41666700
   0.83333300  0.66666700  0.41666700
   0.16666700  0.33333300  0.63888900
   0.16666700  0.83333300  0.63888900
   0.66666700  0.33333300  0.63888900
   0.66666700  0.83333300  0.63888900
   0.05555600  0.27777800  0.72389500
   0.90738700  0.27777800  0.72389500
Direct configuration=     2
   0.16666943  0.33333613  0.38858587
   0.16666612  0.83333112  0.38858740
   0.66666676  0.33333600  0.38858762
   0.66666530  0.83332901  0.38858710
  -0.00029163 -0.00109251  0.61125609
  -0.00080566  0.50054823  0.61126630
   0.50004363  0.00025597  0.61148886
   0.50090906  0.50018379  0.61140713
   0.33336067  0.16667258  0.49998460
   0.33334967  0.66668230  0.49998099
   0.83330449  0.16666066  0.49997615
   0.83331599  0.66665013  0.49999678
   0.16666015  0.33333140  0.47180505
   0.16666228  0.83332882  0.47180311
   0.66667427  0.33333561  0.47180298
   0.66667203  0.83333732  0.47180667
   0.00001038  0.00000024  0.36091510
   0.00000026  0.50000512  0.36091642
   0.49999168  0.00000334  0.36091548
   0.49999818  0.49999172  0.36091494
   0.33313727  0.16668303  0.58312869
   0.33322783  0.66649508  0.58314092
   0.83355212  0.16673217  0.58314514
   0.83338741  0.66674700  0.58311362
  -0.00000400  0.00000594  0.52823004
   0.00000789  0.49999818  0.52822632
   0.50000516 -0.00000620  0.52820090
   0.49999365  0.50000493  0.52821305
   0.33333441  0.16666339  0.41689182
   0.33332368  0.66666559  0.41689332
   0.83333609  0.16667638  0.41689448
   0.83334077  0.66666241  0.41689281
   0.16710938  0.33371972  0.63869922
   0.16654817  0.83321135  0.63903569
   0.66643709  0.33349235  0.63884726
   0.66680884  0.83336387  0.63904646
   0.06073429  0.27706612  0.72465229
   0.90213990  0.27814770  0.72395336
Direct configuration=     3
   0.16666741  0.33333352  0.38883830
   0.16666685  0.83333268  0.38883855
   0.66666696  0.33333350  0.38883859
   0.66666672  0.83333233  0.38883850
  -0.00004878 -0.00018274  0.61113527
  -0.00013476  0.50009170  0.61113698
   0.50000730  0.00004282  0.61117420
   0.50015206  0.50003074  0.61116053
   0.33333763  0.16666793  0.49999742
   0.33333579  0.66666956  0.49999682
   0.83332823  0.16666594  0.49999601
   0.83333015  0.66666418  0.49999946
   0.16666585  0.33333273  0.47215226
   0.16666621  0.83333230  0.47215193
   0.66666822  0.33333344  0.47215191
   0.66666784  0.83333372  0.47215253
   0.00000174  0.00000004  0.36107823
   0.00000004  0.50000086  0.36107845
   0.49999861  0.00000056  0.36107830
   0.49999969  0.49999862  0.36107821
   0.33330026  0.16666968  0.58329882
   0.33331541  0.66663824  0.58330087
   0.83336965  0.16667790  0.58330158
   0.83334210  0.66668038  0.58329630
  -0.00000067  0.00000099  0.52785361
   0.00000132  0.49999970  0.52785299
   0.50000086 -0.00000104  0.52784874
   0.49999894  0.50000082  0.52785077
   0.33333324  0.16666640  0.41670461
   0.33333144  0.66666676  0.41670486
   0.83333352  0.16666857  0.41670505
   0.83333430  0.66666623  0.41670477
   0.16674100  0.33339769  0.63885726
   0.16664712  0.83331265  0.63891354
   0.66662854  0.33335965  0.63888202
   0.66669073  0.83333816  0.63891534
   0.05642217  0.27765892  0.72402167
   0.90650932  0.27783984  0.72390476
Direct configuration=     4
   0.16667046  0.33333614  0.38849142
   0.16666808  0.83333279  0.38849126
   0.66666541  0.33333452  0.38849096
   0.66666444  0.83332975  0.38849063
  -0.00037726 -0.00142161  0.61130048
  -0.00105789  0.50070118  0.61132191
   0.50006736  0.00033328  0.61160787
   0.50116246  0.50023314  0.61150249
   0.33337482  0.16668048  0.49998310
   0.33335936  0.66668634  0.49998205
   0.83329299  0.16665779  0.49997321
   0.83330227  0.66664037  0.49998277
   0.16665588  0.33332756  0.47164784
   0.16665643  0.83332809  0.47164655
   0.66667798  0.33333909  0.47164620
   0.66667804  0.83333904  0.47164817
   0.00000654 -0.00000040  0.36082906
   0.00000055  0.50000386  0.36082983
   0.49999437  0.00000159  0.36082905
   0.49999912  0.49999507  0.36082895
   0.33306576  0.16667479  0.58306365
   0.33319445  0.66644918  0.58308146
   0.83362267  0.16675472  0.58308596
   0.83340941  0.66677901  0.58304040
  -0.00000723 -0.00000255  0.52839496
  -0.00000180  0.50000119  0.52839032
   0.50000781 -0.00000008  0.52835925
   0.50000373  0.50000480  0.52837503
   0.33333414  0.16666475  0.41696017
   0.33332763  0.66666609  0.41696107
   0.83333514  0.16667259  0.41696255
   0.83333794  0.66666417  0.41696122
   0.16727938  0.33384745  0.63865997
   0.16649081  0.83316865  0.63910160
   0.66632389  0.33357134  0.63883412
   0.66686840  0.83335635  0.63911443
   0.05578924  0.27680130  0.72493637
   0.90710021  0.27830418  0.72398370
Direct configuration=     5
   0.16667201  0.33333746  0.38831574
   0.16666870  0.83333284  0.38831538
   0.66666463  0.33333504  0.38831490
   0.66666329  0.83332844  0.38831445
  -0.00054362 -0.00204902  0.61138415
  -0.00152540  0.50100985  0.61141556
   0.50009777  0.00048038  0.61182749
   0.50167417  0.50033564  0.61167567
   0.33339366  0.16668684  0.49997585
   0.33337130  0.66669485  0.49997456
   0.83327514  0.16665367  0.49996166
   0.83328816  0.66662832  0.49997432
   0.16665083  0.33332494  0.47139238
   0.16665147  0.83332596  0.47139061
   0.66668292  0.33334196  0.47139008
   0.66668321  0.83334174  0.47139274
   0.00000897 -0.00000062  0.36070287
   0.00000081  0.50000538  0.36070391
   0.49999222  0.00000212  0.36070282
   0.49999882  0.49999327  0.36070272
   0.33294701  0.16667737  0.58294454
   0.33313319  0.66635343  0.58297034
   0.83375081  0.16679362  0.58297677
   0.83344350  0.66682895  0.58291079
  -0.00001056 -0.00000435  0.52866912
  -0.00000338  0.50000195  0.52866244
   0.50001132  0.00000041  0.52861779
   0.50000615  0.50000681  0.52864054
   0.33333460  0.16666391  0.41708960
   0.33332571  0.66666574  0.41709083
   0.83333595  0.16667463  0.41709295
   0.83333978  0.66666312  0.41709110
   0.16755204  0.33407522  0.63856006
   0.16641164  0.83309573  0.63919684
   0.66616961  0.33367855  0.63880987
   0.66695838  0.83336555  0.63921526
   0.05546870  0.27636696  0.72539961
   0.90739947  0.27853933  0.72402368
Direct configuration=     6
   0.16667488  0.33333764  0.38830257
   0.16667385  0.83333666  0.38829892
   0.66666000  0.33333080  0.38829471
   0.66666033  0.83332877  0.38829748
  -0.00014545 -0.00114595  0.61138094
  -0.00080151  0.50069924  0.61136731
   0.50006967  0.00013865  0.61177122
   0.50050862  0.50009760  0.61169926
   0.33345160  0.16672207  0.50004106
   0.33344652  0.66672489  0.50009716
   0.83321689  0.16661189  0.50004505
   0.83320859  0.66660306  0.49986968
   0.16662452  0.33330011  0.47116444
   0.16657791  0.83330123  0.47116896
   0.66672488  0.33339945  0.47116513
   0.66674135  0.83333431  0.47116470
   0.00000212 -0.00000398  0.36044936
  -0.00000289  0.50000332  0.36044974
   0.49999832  0.00000270  0.36044857
   0.50000455  0.49999840  0.36044880
   0.33298940  0.16635031  0.58300110
   0.33325593  0.66677177  0.58303479
   0.83347927  0.16668229  0.58305867
   0.83353396  0.66690016  0.58294203
  -0.00011575 -0.00024500  0.52883275
  -0.00018808  0.50010132  0.52883643
   0.50003922  0.00006931  0.52883620
   0.50025456  0.50007191  0.52881898
   0.33334347  0.16666750  0.41696419
   0.33333615  0.66667137  0.41696243
   0.83332630  0.16666819  0.41696662
   0.83333098  0.66665996  0.41697335
   0.16785671  0.33425078  0.63854802
   0.16623550  0.83300135  0.63943148
   0.66599329  0.33383733  0.63892057
   0.66714946  0.83339144  0.63945263
   0.05459715  0.27565369  0.72613464
   0.90823070  0.27893145  0.72415007
Direct configuration=     7
   0.16667546  0.33333767  0.38829991
   0.16667489  0.83333743  0.38829560
   0.66665907  0.33332994  0.38829064
   0.66665974  0.83332884  0.38829405
  -0.00006508 -0.00096368  0.61138029
  -0.00065540  0.50063655  0.61135757
   0.50006400  0.00006968  0.61175987
   0.50027337  0.50004955  0.61170402
   0.33346329  0.16672918  0.50005422
   0.33346170  0.66673095  0.50012191
   0.83320514  0.16660345  0.50006187
   0.83319253  0.66659796  0.49984856
   0.16661921  0.33329510  0.47111843
   0.16656306  0.83329624  0.47112422
   0.66673335  0.33341106  0.47111973
   0.66675309  0.83333280  0.47111868
   0.00000073 -0.00000466  0.36039820
  -0.00000363  0.50000290  0.36039844
   0.49999955  0.00000281  0.36039726
   0.50000570  0.49999943  0.36039756
   0.33299796  0.16628429  0.58301251
   0.33328070  0.66685621  0.58304779
   0.83342447  0.16665982  0.58307520
   0.83355222  0.66691453  0.58294833
  -0.00013698 -0.00029357  0.52886577
  -0.00022536  0.50012138  0.52887154
   0.50004484  0.00008322  0.52888028
   0.50030469  0.50008505  0.52885500
   0.33334526  0.16666823  0.41693888
   0.33333826  0.66667250  0.41693652
   0.83332435  0.16666689  0.41694112
   0.83332921  0.66665933  0.41694958
   0.16791821  0.33428621  0.63854559
   0.16619995  0.83298230  0.63947884
   0.66595770  0.33386937  0.63894292
   0.66718803  0.83339667  0.63950054
   0.05442124  0.27550973  0.72628300
   0.90839847  0.27901059  0.72417558
Direct configuration=     8
   0.16667600  0.33333896  0.38828836
   0.16668229  0.83334006  0.38828255
   0.66665584  0.33332309  0.38827571
   0.66665511  0.83333168  0.38828009
   0.00003817 -0.00073185  0.61138433
  -0.00046842  0.50056205  0.61134858
   0.50005617 -0.00001765  0.61175028
   0.49997621  0.49999191  0.61171277
   0.33347489  0.16673728  0.50006766
   0.33348062  0.66673774  0.50014775
   0.83319302  0.16659234  0.50007938
   0.83317266  0.66659388  0.49982031
   0.16661181  0.33329025  0.47106721
   0.16654946  0.83329074  0.47107254
   0.66674286  0.33342090  0.47106651
   0.66676438  0.83333330  0.47106524
  -0.00000202 -0.00000697  0.36032000
  -0.00000572  0.50000273  0.36031998
   0.50000161  0.00000330  0.36031859
   0.50000890  0.50000149  0.36031912
   0.33300799  0.16617650  0.58303422
   0.33332254  0.66699314  0.58307192
   0.83334002  0.16662344  0.58310575
   0.83358202  0.66694145  0.58296343
  -0.00016567 -0.00035340  0.52890054
  -0.00027214  0.50014523  0.52891008
   0.50005559  0.00010100  0.52893275
   0.50036441  0.50010110  0.52889621
   0.33334899  0.16666950  0.41689581
   0.33334248  0.66667509  0.41689353
   0.83332007  0.16666423  0.41689807
   0.83332564  0.66665793  0.41690620
   0.16800882  0.33433833  0.63854662
   0.16615295  0.83295322  0.63955187
   0.66590379  0.33391044  0.63897871
   0.66723965  0.83340835  0.63957468
   0.05458274  0.27526418  0.72652876
   0.90821929  0.27915103  0.72421388
Direct configuration=     9
   0.16667662  0.33334043  0.38827523
   0.16669070  0.83334304  0.38826773
   0.66665218  0.33331531  0.38825874
   0.66664985  0.83333492  0.38826422
   0.00015549 -0.00046842  0.61138892
  -0.00025595  0.50047740  0.61133836
   0.50004727 -0.00011688  0.61173939
   0.49963854  0.49992641  0.61172271
   0.33348807  0.16674649  0.50008293
   0.33350211  0.66674544  0.50017711
   0.83317924  0.16657972  0.50009928
   0.83315009  0.66658923  0.49978822
   0.16660340  0.33328475  0.47100900
   0.16653400  0.83328449  0.47101381
   0.66675367  0.33343208  0.47100604
   0.66677721  0.83333387  0.47100453
  -0.00000516 -0.00000959  0.36023115
  -0.00000810  0.50000253  0.36023083
   0.50000394  0.00000386  0.36022921
   0.50001254  0.50000383  0.36023000
   0.33301940  0.16605401  0.58305889
   0.33337007  0.66714874  0.58309934
   0.83324407  0.16658210  0.58314047
   0.83361587  0.66697203  0.58298058
  -0.00019827 -0.00042138  0.52894004
  -0.00032529  0.50017233  0.52895386
   0.50006779  0.00012120  0.52899237
   0.50043228  0.50011933  0.52894304
   0.33335321  0.16667094  0.41684687
   0.33334728  0.66667802  0.41684468
   0.83331519  0.16666121  0.41684916
   0.83332159  0.66665635  0.41685692
   0.16811179  0.33439755  0.63854779
   0.16609953  0.83292017  0.63963486
   0.66584253  0.33395711  0.63901937
   0.66729831  0.83342163  0.63965892
   0.05476626  0.27498515  0.72680802
   0.90801569  0.27931061  0.72425741
Direct configuration=    10
   0.16667646  0.33334262  0.38825359
   0.16670189  0.83334632  0.38824479
   0.66664830  0.33330481  0.38823399
   0.66664288  0.83333997  0.38823974
   0.00015539 -0.00047881  0.61140084
  -0.00026056  0.50049350  0.61134858
   0.50004679 -0.00011554  0.61175652
   0.49964751  0.49993532  0.61173379
   0.33348261  0.16674522  0.50007727
   0.33350287  0.66674428  0.50016764
   0.83318385  0.16657822  0.50009265
   0.83314971  0.66659365  0.49978366
   0.16660187  0.33328741  0.47101329
   0.16654354  0.83328592  0.47101367
   0.66675162  0.33342313  0.47100446
   0.66677072  0.83333852  0.47100415
  -0.00000696 -0.00001209  0.36019821
  -0.00001008  0.50000312  0.36019767
   0.50000493  0.00000445  0.36019561
   0.50001560  0.50000522  0.36019681
   0.33301317  0.16600246  0.58307019
   0.33338981  0.66720900  0.58311180
   0.83321741  0.16656715  0.58315687
   0.83363155  0.66699273  0.58299065
  -0.00020225 -0.00041833  0.52893482
  -0.00032466  0.50016956  0.52895093
   0.50007556  0.00012197  0.52899438
   0.50042494  0.50011831  0.52894315
   0.33335615  0.16667185  0.41682657
   0.33335057  0.66668024  0.41682596
   0.83331171  0.16665916  0.41682935
   0.83331888  0.66665532  0.41683237
   0.16814930  0.33441927  0.63855597
   0.16609335  0.83290826  0.63966564
   0.66581518  0.33396256  0.63903414
   0.66730647  0.83343092  0.63969060
   0.05469307  0.27485971  0.72693308
   0.90807388  0.27938061  0.72428659
Direct configuration=    11
   0.16667600  0.33334921  0.38818868
   0.16673545  0.83335616  0.38817598
   0.66663665  0.33327330  0.38815972
   0.66662198  0.83335514  0.38816630
   0.00015509 -0.00050998  0.61143660
  -0.00027439  0.50054183  0.61137925
   0.50004533 -0.00011152  0.61180792
   0.49967442  0.49996204  0.61176706
   0.33346623  0.16674140  0.50006027
   0.33350513  0.66674078  0.50013925
   0.83319767  0.16657374  0.50007277
   0.83314858  0.66660691  0.49976998
   0.16659728  0.33329542  0.47102616
   0.16657216  0.83329021  0.47101328
   0.66674547  0.33339626  0.47099971
   0.66675125  0.83335248  0.47100304
  -0.00001237 -0.00001958  0.36009939
  -0.00001600  0.50000489  0.36009821
   0.50000788  0.00000622  0.36009481
   0.50002478  0.50000941  0.36009722
   0.33299449  0.16584778  0.58310407
   0.33344903  0.66738979  0.58314917
   0.83313744  0.16652232  0.58320606
   0.83367858  0.66705485  0.58302085
  -0.00021418 -0.00040920  0.52891916
  -0.00032275  0.50016125  0.52894213
   0.50009887  0.00012430  0.52900043
   0.50040291  0.50011527  0.52894347
   0.33336496  0.16667458  0.41676566
   0.33336045  0.66668690  0.41676979
   0.83330125  0.16665300  0.41676993
   0.83331074  0.66665223  0.41675872
   0.16826182  0.33448442  0.63858050
   0.16607479  0.83287250  0.63975801
   0.66573313  0.33397892  0.63907843
   0.66733096  0.83345880  0.63978563
   0.05447348  0.27448336  0.72730825
   0.90824845  0.27959061  0.72437414
Direct configuration=    12
   0.16667509  0.33336239  0.38805886
   0.16680258  0.83337585  0.38803835
   0.66661335  0.33321029  0.38801118
   0.66658016  0.83338549  0.38801941
   0.00015448 -0.00057233  0.61150812
  -0.00030206  0.50063847  0.61144058
   0.50004241 -0.00010348  0.61191071
   0.49972824  0.50001548  0.61183358
   0.33343346  0.16673377  0.50002628
   0.33350965  0.66673378  0.50008245
   0.83322530  0.16656477  0.50003301
   0.83314631  0.66663342  0.49974263
   0.16658811  0.33331143  0.47105190
   0.16662940  0.83329879  0.47101248
   0.66673318  0.33334253  0.47099022
   0.66671231  0.83338039  0.47100082
  -0.00002320 -0.00003456  0.35990175
  -0.00002784  0.50000843  0.35989928
   0.50001380  0.00000977  0.35989322
   0.50004315  0.50001778  0.35989804
   0.33295712  0.16553842  0.58317185
   0.33356748  0.66775135  0.58322392
   0.83297750  0.16643266  0.58330445
   0.83377264  0.66717909  0.58308127
  -0.00023804 -0.00039093  0.52888785
  -0.00031892  0.50014461  0.52892452
   0.50014548  0.00012894  0.52901252
   0.50035887  0.50010919  0.52894413
   0.33338259  0.16668005  0.41664384
   0.33338022  0.66670021  0.41665744
   0.83328035  0.16664070  0.41665109
   0.83329446  0.66664606  0.41661143
   0.16848687  0.33461471  0.63862956
   0.16603767  0.83280099  0.63994273
   0.66556904  0.33401163  0.63916703
   0.66737993  0.83351455  0.63997569
   0.05403430  0.27373066  0.72805860
   0.90859759  0.28001062  0.72454923
Direct configuration=    13
   0.16667326  0.33338875  0.38779923
   0.16693684  0.83341523  0.38776309
   0.66656676  0.33308426  0.38771410
   0.66649654  0.83344617  0.38772564
   0.00015327 -0.00069701  0.61165116
  -0.00035740  0.50083176  0.61156326
   0.50003658 -0.00008741  0.61211628
   0.49983587  0.50012237  0.61196663
   0.33336793  0.16671851  0.49995829
   0.33351868  0.66671979  0.49996887
   0.83328056  0.16654683  0.49995348
   0.83314177  0.66668645  0.49968792
   0.16656977  0.33334344  0.47110337
   0.16674388  0.83331596  0.47101090
   0.66670859  0.33323506  0.47097123
   0.66663443  0.83343622  0.47099636
  -0.00004484 -0.00006451  0.35950647
  -0.00005153  0.50001551  0.35950142
   0.50002563  0.00001686  0.35949003
   0.50007989  0.50003453  0.35949968
   0.33288239  0.16491971  0.58330740
   0.33380436  0.66847448  0.58337341
   0.83265761  0.16625333  0.58350122
   0.83396076  0.66742756  0.58320209
  -0.00028577 -0.00035440  0.52882523
  -0.00031128  0.50011135  0.52888931
   0.50023871  0.00013823  0.52903671
   0.50027078  0.50009704  0.52894543
   0.33341784  0.16669098  0.41640020
   0.33341975  0.66672683  0.41643275
   0.83323853  0.16661608  0.41641341
   0.83326190  0.66663372  0.41631686
   0.16893696  0.33487531  0.63872768
   0.16596344  0.83265796  0.64031219
   0.66524086  0.33407706  0.63934421
   0.66747788  0.83362606  0.64035582
   0.05315594  0.27222528  0.72955929
   0.90929587  0.28085064  0.72489942
Direct configuration=    14
   0.16666959  0.33344147  0.38727996
   0.16720535  0.83349399  0.38721258
   0.66647357  0.33283221  0.38711994
   0.66632930  0.83356754  0.38713810
   0.00015085 -0.00094638  0.61193723
  -0.00046808  0.50121834  0.61180860
   0.50002492 -0.00005526  0.61252743
   0.50005114  0.50033613  0.61223274
   0.33323686  0.16668799  0.49982230
   0.33353676  0.66669180  0.49974171
   0.83339109  0.16651096  0.49979442
   0.83313269  0.66679250  0.49957850
   0.16653308  0.33340748  0.47120631
   0.16697284  0.83335029  0.47100773
   0.66665941  0.33302013  0.47093325
   0.66647866  0.83354787  0.47098746
  -0.00008813 -0.00012442  0.35871590
  -0.00009890  0.50002967  0.35870570
   0.50004929  0.00003104  0.35868365
   0.50015336  0.50006801  0.35870297
   0.33273293  0.16368230  0.58357850
   0.33427814  0.66992073  0.58367238
   0.83201783  0.16589468  0.58389476
   0.83433700  0.66792451  0.58344374
  -0.00038121 -0.00028133  0.52869999
  -0.00029599  0.50004481  0.52881889
   0.50042518  0.00015681  0.52908507
   0.50009460  0.50007272  0.52894803
   0.33348834  0.16671286  0.41591291
   0.33349881  0.66678008  0.41598336
   0.83315490  0.16656685  0.41593805
   0.83319678  0.66660903  0.41572770
   0.16983714  0.33539649  0.63892392
   0.16581497  0.83237192  0.64105110
   0.66458450  0.33420791  0.63969858
   0.66767377  0.83384907  0.64111607
   0.05139923  0.26921450  0.73256067
   0.91069242  0.28253068  0.72559979
Direct configuration=    15
   0.16666744  0.33343751  0.38722940
   0.16719946  0.83349378  0.38716080
   0.66647592  0.33283608  0.38706623
   0.66633538  0.83356786  0.38708310
   0.00014395 -0.00097624  0.61196948
  -0.00047981  0.50125831  0.61183682
   0.50002346 -0.00004821  0.61256888
   0.50008843  0.50036272  0.61225985
   0.33324406  0.16667165  0.49982060
   0.33354628  0.66671668  0.49973447
   0.83337251  0.16650328  0.49979150
   0.83313272  0.66679390  0.49957387
   0.16653484  0.33341426  0.47120738
   0.16698807  0.83335265  0.47100185
   0.66665379  0.33300892  0.47092551
   0.66646570  0.83354991  0.47098081
  -0.00008647 -0.00012016  0.35864708
  -0.00009444  0.50002840  0.35863623
   0.50004887  0.00002865  0.35861145
   0.50014829  0.50006755  0.35863299
   0.33270333  0.16358691  0.58359652
   0.33430587  0.67001776  0.58369369
   0.83199321  0.16587871  0.58392545
   0.83437083  0.66797107  0.58346084
  -0.00038895 -0.00026839  0.52868233
  -0.00029111  0.50003757  0.52880745
   0.50044611  0.00016250  0.52907379
   0.50007304  0.50006678  0.52894203
   0.33348841  0.16671446  0.41586551
   0.33350195  0.66678012  0.41593763
   0.83315440  0.16656437  0.41589067
   0.83319418  0.66661000  0.41567488
   0.16991134  0.33543590  0.63894819
   0.16578176  0.83233425  0.64111561
   0.66454543  0.33424089  0.63973178
   0.66769455  0.83385607  0.64118055
   0.05093748  0.26895236  0.73283308
   0.91111272  0.28266716  0.72569173
Direct configuration=    16
   0.16666378  0.33343077  0.38714343
   0.16718945  0.83349343  0.38707276
   0.66647992  0.33284267  0.38697490
   0.66634572  0.83356840  0.38698957
   0.00013222 -0.00102702  0.61202431
  -0.00049975  0.50132629  0.61188482
   0.50002097 -0.00003622  0.61263936
   0.50015184  0.50040794  0.61230594
   0.33325630  0.16664385  0.49981771
   0.33356246  0.66675897  0.49972216
   0.83334091  0.16649023  0.49978653
   0.83313278  0.66679628  0.49956600
   0.16653784  0.33342580  0.47120920
   0.16701397  0.83335667  0.47099186
   0.66664423  0.33298987  0.47091236
   0.66644365  0.83355338  0.47096950
  -0.00008364 -0.00011291  0.35853004
  -0.00008686  0.50002624  0.35851810
   0.50004816  0.00002460  0.35848867
   0.50013966  0.50006677  0.35851399
   0.33265298  0.16342471  0.58362717
   0.33435301  0.67018276  0.58372991
   0.83195134  0.16585155  0.58397763
   0.83442834  0.66805023  0.58348990
  -0.00040211 -0.00024639  0.52865230
  -0.00028283  0.50002526  0.52878800
   0.50048171  0.00017218  0.52905459
   0.50003638  0.50005669  0.52893182
   0.33348852  0.16671718  0.41578491
   0.33350730  0.66678017  0.41585986
   0.83315355  0.16656013  0.41581011
   0.83318977  0.66661164  0.41558506
   0.17003751  0.33550291  0.63898945
   0.16572529  0.83227021  0.64122530
   0.66447899  0.33429696  0.63978824
   0.66772990  0.83386798  0.64129018
   0.05015233  0.26850660  0.73329630
   0.91182740  0.28289922  0.72584807
Direct configuration=    17
   0.16666132  0.33341912  0.38713367
   0.16714975  0.83348399  0.38706442
   0.66649406  0.33287773  0.38696925
   0.66637378  0.83355451  0.38698126
   0.00012620 -0.00103187  0.61203553
  -0.00049599  0.50133592  0.61189440
   0.50001941 -0.00003213  0.61264759
   0.50017055  0.50041842  0.61231186
   0.33328149  0.16662478  0.49983070
   0.33357380  0.66679697  0.49973851
   0.83330236  0.16648407  0.49980068
   0.83313354  0.66678590  0.49957074
   0.16654543  0.33342812  0.47119635
   0.16700668  0.83335541  0.47098206
   0.66664241  0.33300180  0.47090414
   0.66644427  0.83354128  0.47095914
  -0.00007579 -0.00009938  0.35852375
  -0.00007453  0.50002281  0.35851160
   0.50004453  0.00001941  0.35847939
   0.50012328  0.50006197  0.35850678
   0.33262739  0.16343367  0.58362149
   0.33433637  0.67015079  0.58372574
   0.83199265  0.16587197  0.58397601
   0.83443295  0.66805898  0.58348618
  -0.00040328 -0.00023788  0.52864307
  -0.00027908  0.50002359  0.52878158
   0.50049102  0.00017979  0.52903316
   0.50002819  0.50005128  0.52892439
   0.33347998  0.16671667  0.41577343
   0.33350188  0.66677373  0.41584596
   0.83316312  0.16656260  0.41579717
   0.83319426  0.66661622  0.41557864
   0.17003720  0.33549865  0.63900100
   0.16569195  0.83224755  0.64123112
   0.66450402  0.33433187  0.63979518
   0.66773774  0.83385093  0.64129303
   0.05011094  0.26843688  0.73336222
   0.91184917  0.28293988  0.72587882
Direct configuration=    18
   0.16665393  0.33338418  0.38710440
   0.16703064  0.83345565  0.38703942
   0.66653646  0.33298290  0.38695231
   0.66645796  0.83351283  0.38695632
   0.00010814 -0.00104644  0.61206921
  -0.00048470  0.50136481  0.61192316
   0.50001471 -0.00001985  0.61267227
   0.50022668  0.50044988  0.61232962
   0.33335706  0.16656757  0.49986965
   0.33360782  0.66691097  0.49978757
   0.83318671  0.16646560  0.49984313
   0.83313581  0.66675476  0.49958494
   0.16656822  0.33343508  0.47115779
   0.16698480  0.83335165  0.47095266
   0.66663696  0.33303758  0.47087947
   0.66644613  0.83350496  0.47092805
  -0.00005226 -0.00005878  0.35850489
  -0.00003753  0.50001249  0.35849208
   0.50003362  0.00000384  0.35845156
   0.50007412  0.50004755  0.35848516
   0.33255064  0.16346055  0.58360444
   0.33428642  0.67005489  0.58371324
   0.83211656  0.16593323  0.58397114
   0.83444679  0.66808524  0.58347502
  -0.00040678 -0.00021235  0.52861537
  -0.00026785  0.50001857  0.52876233
   0.50051896  0.00020261  0.52896889
   0.50000361  0.50003503  0.52890211
   0.33345434  0.16671517  0.41573899
   0.33348561  0.66675442  0.41580423
   0.83319185  0.16657002  0.41575836
   0.83320773  0.66662997  0.41555938
   0.17003627  0.33548588  0.63903563
   0.16559193  0.83217957  0.64124859
   0.66457910  0.33443660  0.63981598
   0.66776126  0.83379977  0.64130155
   0.04998679  0.26822774  0.73356000
   0.91191449  0.28306187  0.72597107
Direct configuration=    19
   0.16663916  0.33331430  0.38704587
   0.16679243  0.83339897  0.38698941
   0.66662128  0.33319323  0.38691841
   0.66662631  0.83342947  0.38690643
   0.00007202 -0.00107556  0.61213658
  -0.00046214  0.50142260  0.61198067
   0.50000533  0.00000470  0.61272163
   0.50033892  0.50051278  0.61236515
   0.33350821  0.16645317  0.49994757
   0.33367586  0.66713898  0.49988569
   0.83295542  0.16642865  0.49992804
   0.83314037  0.66669249  0.49961335
   0.16661380  0.33344899  0.47108068
   0.16694105  0.83334411  0.47089387
   0.66662606  0.33310916  0.47083013
   0.66644984  0.83343232  0.47086587
  -0.00000520  0.00002243  0.35846717
   0.00003646  0.49999187  0.35845305
   0.50001181 -0.00002730  0.35839591
   0.49997579  0.50001872  0.35844191
   0.33239712  0.16351430  0.58357033
   0.33418653  0.66986309  0.58368825
   0.83236439  0.16605575  0.58396141
   0.83447448  0.66813776  0.58345271
  -0.00041379 -0.00016128  0.52855997
  -0.00024538  0.50000853  0.52872384
   0.50057483  0.00024825  0.52884033
   0.49995446  0.50000254  0.52885754
   0.33340306  0.16671216  0.41567011
   0.33345309  0.66671580  0.41572079
   0.83324929  0.16658484  0.41568072
   0.83323467  0.66665748  0.41552086
   0.17003441  0.33546034  0.63910490
   0.16539190  0.83204359  0.64128354
   0.66472927  0.33464606  0.63985759
   0.66780829  0.83369744  0.64131861
   0.04973848  0.26780945  0.73395554
   0.91204513  0.28330584  0.72615557
Direct configuration=    20
   0.16663213  0.33328105  0.38701802
   0.16667910  0.83337201  0.38696562
   0.66666163  0.33329330  0.38690228
   0.66670641  0.83338981  0.38688270
   0.00005483 -0.00108942  0.61216863
  -0.00045140  0.50145009  0.61200803
   0.50000086  0.00001638  0.61274511
   0.50039233  0.50054270  0.61238206
   0.33358011  0.16639874  0.49998464
   0.33370823  0.66724745  0.49993237
   0.83284538  0.16641107  0.49996844
   0.83314253  0.66666287  0.49962687
   0.16663549  0.33345561  0.47104400
   0.16692023  0.83334053  0.47086591
   0.66662087  0.33314321  0.47080665
   0.66645161  0.83339776  0.47083629
   0.00001719  0.00006106  0.35844922
   0.00007166  0.49998206  0.35843447
   0.50000143 -0.00004212  0.35836943
   0.49992902  0.50000500  0.35842134
   0.33232409  0.16353987  0.58355411
   0.33413900  0.66977184  0.58367636
   0.83248230  0.16611404  0.58395678
   0.83448765  0.66816274  0.58344209
  -0.00041713 -0.00013698  0.52853361
  -0.00023469  0.50000375  0.52870552
   0.50060141  0.00026996  0.52877917
   0.49993107  0.49998708  0.52883634
   0.33337867  0.16671073  0.41563734
   0.33343761  0.66669743  0.41568109
   0.83327662  0.16659189  0.41564379
   0.83324749  0.66667056  0.41550253
   0.17003353  0.33544819  0.63913786
   0.16529673  0.83197891  0.64130016
   0.66480071  0.33474571  0.63987738
   0.66783067  0.83364876  0.64132672
   0.04962034  0.26761044  0.73414373
   0.91210728  0.28342191  0.72624334
Direct configuration=    21
   0.16663379  0.33326977  0.38700654
   0.16662955  0.83335954  0.38694288
   0.66667696  0.33333964  0.38688878
   0.66673838  0.83336716  0.38686517
   0.00004297 -0.00106723  0.61217533
  -0.00042034  0.50145441  0.61201792
   0.49999917  0.00003703  0.61273894
   0.50042845  0.50055909  0.61237175